default_name
 50565
  25.4800133  45.2004381  54.9284994  24.9952740  45.9760504  54.5000670
  25.3691693  45.2619503  55.9305125  25.2266065  44.3514887  54.4435565
  26.9450133  45.3744381  54.6814994  27.4303127  45.4629298  55.6534834
  27.6330133  44.2134381  53.8814994  28.5009774  44.5746412  53.3298928
  27.9431058  43.4307697  54.5738671  26.7170133  43.5574381  52.8674994
  26.7550133  43.9764381  51.5334994  27.4533922  44.7626548  51.2467416
  25.9140133  43.4024381  50.5724994  25.9470046  43.7486633  49.5394745
  25.0300133  42.3824381  50.9404994  24.3702668  41.9350355  50.1970847
  24.9940133  41.9364381  52.2674994  24.3090859  41.1392070  52.5562850
  25.8390133  42.5154381  53.2244994  25.8201153  42.1597995  54.2546761
  27.2170133  46.7564381  54.1644994  26.8180133  47.1054381  53.0554994
  27.8630133  47.5794381  55.0014994  28.1953154  47.1511980  55.8537230
  28.0700133  49.0044381  54.8214994  27.1089896  49.5010598  54.6877112
  28.7780133  49.6184381  56.0614994  29.7146281  49.0722899  56.1736347
  28.9917086  50.6718176  55.8803204  27.9590133  49.4804381  57.3274994
  26.5570133  49.6324381  57.3404994  26.0348732  49.8315538  56.4046457
  25.8360133  49.5304381  58.5364994  24.7504433  49.6281192  58.5265979
  26.5060133  49.2894381  59.7414994  25.7770133  49.2044381  60.9484994
  24.8327821  49.3268281  60.8258300  27.8990133  49.1474381  59.7474994
  28.4252200  48.9646601  60.6844088  28.6160133  49.2404381  58.5484994
  29.7000353  49.1264753  58.5514831  28.8610133  49.3474381  53.5914994
  28.6170133  50.3694381  52.9604994  29.8230133  48.4994381  53.2264994
  29.9965589  47.6961350  53.8135986  30.6630133  48.6944381  52.0654994
  31.1930975  49.6442433  52.1360681  31.7060133  47.5494381  51.9874994
  32.2238392  47.4943313  52.9450582  31.1737526  46.6152088  51.8085740
  32.6530133  47.7614381  50.9484994  33.2790910  47.0338522  50.9328357
  29.8820133  48.7584381  50.7684994  30.1530133  49.6164381  49.9334994
  28.8960133  47.8694381  50.5914994  28.7810884  47.1068354  51.2436718
  28.0400133  47.9084381  49.4214994  28.6307060  48.2277169  48.5628712
  27.3680133  46.5844381  49.0844994  26.7548268  46.2733566  49.9302711
  26.4770133  46.7314381  47.8284994  27.0896200  47.0420714  46.9821419
  26.0051247  45.7750613  47.6031881  25.7075876  47.4809103  48.0139098
  28.4670133  45.5244381  48.8514994  29.0672784  45.4179901  49.7550772
  28.0042836  44.5679067  48.6085416  29.1061484  45.8383139  48.0262181
  27.0000133  48.9984381  49.5774994  26.7450133  49.7534381  48.6494994
  26.3880133  49.1054381  50.7564994  26.6593808  48.4539215  51.4789848
  25.2890133  50.0134381  51.0264994  24.4986461  49.8956693  50.2851835
  24.7050133  49.6784381  52.4364994  24.3280409  48.6560191  52.4109960
  25.5282486  49.7439567  53.1479001  23.5950133  50.6144381  52.8624994
  22.3750133  50.6264381  52.1664994  22.2351780  49.9557563  51.3187191
  21.3430133  51.4904381  52.5534994  20.4027990  51.4970770  52.0020877
  21.5200133  52.3484381  53.6464994  20.4780133  53.2174381  54.0364994
  19.6963739  53.1370887  53.4849712  22.7300133  52.3394381  54.3524994
  22.8699179  53.0052242  55.2041190  23.7600133  51.4744381  53.9634994
  24.6999806  51.4633893  54.5152598  25.6210133  51.4934381  50.9044994
  24.8590133  52.2654381  50.3254994  26.7660133  51.9134381  51.4474994
  27.3514817  51.2467243  51.9300124  27.1830133  53.3004381  51.4204994
  26.3200592  53.9476292  51.5771935  28.2200133  53.5794381  52.5364994
  29.0137970  52.8635513  52.3231620  28.6125645  54.5926753  52.4507443
  27.6910133  53.3504381  53.9764994  27.2941891  52.3378396  54.0491334
  28.8200133  53.5344381  55.0084994  29.2170517  54.5470167  54.9367788
  28.4266195  53.3691754  56.0115100  29.6162801  52.8174882  54.8083932
  26.4850133  54.2494381  54.3174994  25.6690107  54.0415454  53.6253869
  26.1567086  54.0465936  55.3368970  26.7758248  55.2964046  54.2315421
  27.7530133  53.6514381  50.0814994  27.6490133  54.7914381  49.6334994
  28.3070133  52.6554381  49.3904994  28.4864278  51.7866192  49.8732660
  28.6830133  52.7564381  48.0074994  29.3643941  53.5977899  47.8812198
  29.3910133  51.4844381  47.5564994  28.7181212  50.6342709  47.6684455
  29.6822072  51.5814112  46.5106014  30.2798011  51.3265878  48.1674321
  27.4760133  52.9874381  47.1164994  27.5170133  53.8424381  46.2384994
  26.3770133  52.2584381  47.3624994  26.4603524  51.5741578  48.1006826
  25.1200133  52.3304381  46.6244994  25.3135179  52.1428327  45.5683463
  24.0440133  51.3334381  47.1144994  24.1396328  51.2588757  48.1977337
  22.5960133  51.7504381  46.7514994  22.4994885  51.8247626  45.6683282
  21.8971009  51.0033414  47.1276223  22.3717008  52.7168841  47.2029056
  24.3070133  49.9384381  46.5154994  25.2902191  49.5873896  46.8288257
  23.5447039  49.2424811  46.8656820  24.2724404  49.9971676  45.4276316
  24.5650133  53.7234381  46.6864994  24.1550133  54.2884381  45.6744994
  24.5760133  54.3014381  47.8834994  24.9371973  53.7623882  48.6574960
  24.0690133  55.6144381  48.1484994  23.0323470  55.6185011  47.8117421
  24.0960133  55.8994381  49.6624994  25.1281404  55.9076135  50.0128521
  23.6386775  56.8692689  49.8583882  23.5403505  55.1233310  50.1888033
  24.8030133  56.7294381  47.4524994  24.1880133  57.6634381  46.9454994
  26.1330133  56.6494381  47.4224994  26.5847720  55.8644596  47.8695142
  26.9640133  57.6754381  46.8374994  26.5504631  58.6620847  47.0463144
  28.3820133  57.5964381  47.4434994  28.6548878  56.5521123  47.2917676
  29.0712854  58.2354228  46.8915006  28.4600133  57.9364381  48.9544994
  27.6637240  57.4054015  49.4760589  29.8230133  57.5204381  49.5394994
  30.6198273  58.0514489  49.0187175  29.8546621  57.7686517  50.6003901
  29.9603491  56.4464424  49.4139104  28.1670133  59.4194381  49.2454994
  27.1634930  59.6667975  48.8992919  28.2355663  59.6001815  50.3182219
  28.8942242  60.0428791  48.7253219  27.0060133  57.5564381  45.3354994
  27.2010133  58.5464381  44.6334994  26.7900133  56.3454381  44.8134994
  26.6788106  55.5628305  45.4421955  26.6370133  56.1124381  43.3964994
  27.4988665  56.5121051  42.8621076  26.5330133  54.6054381  43.1044994
  27.3505533  54.1770858  43.6843632  25.5899778  54.1626062  43.4249428
  26.7560133  54.3114381  41.6074994  26.1512290  54.9767360  40.9912889
  28.2410133  54.5534381  41.3144994  28.8464595  53.8881279  41.9300448
  28.4410532  54.3555979  40.2614353  28.4930020  55.5889182  41.5433727
  26.2680133  52.9254381  41.1524994  25.1973492  52.8379532  41.3372269
  26.4636442  52.8024381  40.0872760  26.7967552  52.1523999  41.7101221
  25.3580133  56.7014381  42.8754994  25.3050133  57.2684381  41.7914994
  24.2870133  56.5374381  43.6424994  24.4131144  56.1238911  44.5552846
  22.9680133  56.9364381  43.2544994  22.9655981  57.2368291  42.2067119
  21.9720133  55.7614381  43.4354994  22.0478702  55.5342256  44.4988523
  20.9569543  56.0849969  43.2051414  22.3090133  54.4934381  42.6114994
  23.3154396  54.1641624  42.8699265  21.3060133  53.3614381  42.9094994
  20.2993498  53.6898278  42.6508733  21.5637284  52.4821868  42.3190750
  21.3447297  53.1107226  43.9695669  22.3810133  54.7764381  41.1004994
  23.1548730  55.5189725  40.9058630  22.6199916  53.8554120  40.5688024
  21.4192437  55.1556561  40.7551130  22.6090133  58.0694381  44.1804994
  21.7340133  57.9424381  45.0364994  23.3140133  59.1914381  44.0244994
  24.0165060  59.1152933  43.3028309  23.3220133  60.3614381  44.8644994
  23.5094893  60.0602805  45.8951575  24.4170133  61.3694381  44.4364994
  25.3133211  60.7944074  44.2039669  24.0624986  61.8691391  43.5349906
  24.7480133  62.4244381  45.5124994  25.3958698  63.1644781  45.0426872
  23.8064352  62.8945232  45.7963175  25.5660133  61.7734381  47.0044994
  27.2300133  61.6674381  46.2824994  27.5515169  62.6585028  45.9623038
  27.9263144  61.2833763  47.0279939  27.2118560  60.9967538  45.4234568
  21.9240133  60.9714381  45.0344994  21.6090133  61.2754381  46.1844994
  20.9850133  61.1014381  44.0714994  19.5800133  60.9944381  44.4594994
  19.2767062  61.9139139  44.9601682  19.4610766  60.1532517  45.1424039
  18.8490133  60.7784381  43.1374994  17.8082980  61.0957741  43.2031378
  18.8910768  59.7342758  42.8275685  19.6440133  61.6654381  42.1774994
  19.2745192  62.6881683  42.2523054  19.6021317  61.3396463  41.1381702
  21.0960133  61.5934381  42.6934994  21.7000368  60.8876847  42.1232660
  21.7350133  62.9584381  42.6404994  21.3670133  63.8044381  43.4534994
  22.6060133  63.2084381  41.6644994  23.1036440  62.4387522  41.2401803
  22.9080133  64.5474381  41.2184994  22.1179229  65.2242487  41.5437434
  24.2520133  65.0424381  41.7984994  24.9255312  64.2039811  41.6211219
  24.6034562  65.9134261  41.2453558  24.2230133  65.3704381  43.3154994
  23.8321588  64.5052140  43.8509626  25.6300133  65.7054381  43.8404994
  26.0213656  66.5709046  43.3057939  25.5768515  65.9306144  44.9056614
  26.2899673  64.8524480  43.6824836  23.2440133  66.5044381  43.6784994
  22.2331966  66.2199226  43.3862668  23.2746421  66.6813222  44.7536157
  23.5309538  67.4150746  43.1526618  22.9200133  64.4854381  39.7154994
  23.9890133  64.3314381  39.1274994  21.7630133  64.6154381  39.0294994
  20.4190133  64.5574381  39.6064994  20.0773549  65.5672523  39.8337548
  20.4421794  63.9674569  40.5227333  19.5960133  63.8944381  38.5094994
  18.5379035  64.1379854  38.6053498  19.7214878  62.8117323  38.5197859
  20.1970133  64.5024381  37.2384994  19.6933261  65.4504225  37.0494925
  20.1220257  63.8691761  36.3544995  21.6850133  64.7564381  37.5814994
  22.3547242  64.0296800  37.1217078  22.0830133  66.1484381  37.1524994
  21.8040133  66.5134381  36.0114994  22.7500133  66.9094381  38.0264994
  22.8093045  66.5446482  38.9664527  23.3690133  68.1814381  37.7464994
  22.6155836  68.8917257  37.4060082  24.0440133  68.7484381  39.0204994
  24.8032896  68.0016675  39.2527331  24.5274568  69.6974736  38.7887369
  23.1090133  68.9304381  40.2414994  22.7249063  67.9557448  40.5423909
  23.8750133  69.5654381  41.4174994  24.2590523  70.5404304  41.1174948
  23.2026809  69.6860177  42.2669288  24.7060930  68.9198246  41.7013836
  21.8480133  69.7534381  39.9124994  21.2790285  69.2504874  39.1305810
  21.2314462  69.8475101  40.8064214  22.1405397  70.7451555  39.5675011
  24.4060133  67.9974381  36.6654994  24.4920133  68.8034381  35.7404994
  25.1760133  66.9074381  36.7494994  25.2563072  66.4095208  37.6245598
  25.9990133  66.4874381  35.6484994  25.5477163  66.7969284  34.7058193
  27.4130133  67.1354381  35.7604994  27.1815243  68.1905247  35.9064593
  27.9244956  66.7507765  36.6428380  28.3310133  66.9744381  34.5194994
  28.4271964  65.9101874  34.3045106  27.7680133  67.6994381  33.2814994
  27.6719760  68.7638836  33.4955819  28.4443671  67.5584944  32.4384210
  26.7889474  67.2894220  33.0336746  29.7630133  67.4494381  34.8304994
  30.1730765  66.8574588  35.6487342  30.3873404  67.3266884  33.9454855
  29.7433301  68.5007491  35.1176520  26.0500133  64.9914381  35.5534994
  25.1200133  64.3744381  35.0374994  27.1590133  64.3984381  36.0104994
  27.7889605  64.9966268  36.5257043  27.5330133  63.0174381  35.8144994
  27.5935061  62.8201707  34.7442072  28.9020133  62.7144381  36.4484994
  28.8546927  62.8985636  37.5217927  29.1625010  61.6710946  36.2705079
  29.6599444  63.3587235  36.0029257  26.5240133  62.0934381  36.4044994
  26.2550133  62.1854381  37.5964994  25.9690133  61.2014381  35.5784994
  26.2029668  61.2595851  34.5976915  24.9620133  60.2484381  35.9874994
  24.5315713  60.5580816  36.9398332  23.8300133  60.1574381  34.9404994
  24.2787723  59.9612398  33.9667331  23.1771358  59.3281684  35.2128279
  23.0060133  61.4594381  34.8734994  22.6772132  61.7474474  35.8720193
  23.6221484  62.2533304  34.4513446  21.7690133  61.2734381  33.9844994
  20.8030133  60.6124381  34.3814994  21.8000133  61.8804381  32.7624994
  21.0119597  61.7904721  32.1372162  22.6108680  62.4168877  32.4889342
  25.5720133  58.9204381  36.2934994  24.8460133  57.9854381  36.6064994
  26.9070133  58.8684381  36.2494994  27.2471479  59.7329763  35.8532905
  27.8690133  57.8324381  36.5654994  28.1238118  57.2400537  35.6867175
  29.1600133  58.5534381  37.0734994  29.3063547  59.4701918  36.5023199
  29.0002426  58.8013503  38.1228387  30.4290133  57.6964381  36.9594994
  30.4290133  56.4754381  37.1214994  31.5650133  58.3904381  36.6364994
  32.4429685  57.9001473  36.5421090  31.5195768  59.3893278  36.4941776
  27.3770133  56.7864381  37.5484994  26.8350133  57.1104381  38.5934994
  27.5620133  55.5124381  37.2164994  27.9534857  55.3355416  36.3024117
  27.2680133  54.3824381  38.0654994  27.0766681  54.7296538  39.0808454
  26.0070133  53.6094381  37.5554994  26.0391250  53.8904780  36.5028434
  26.1863359  52.5385165  37.6507388  24.6010133  53.9564381  38.1444994
  24.6614870  53.7265400  39.2082619  24.1110133  55.3974381  37.9604994
  24.0498372  55.6279345  36.8969075  23.1253672  55.5071394  38.4127915
  24.8089651  56.0832083  38.4407941  23.5410133  52.9694381  37.6174994
  23.8094857  51.9551762  37.9129565  22.5672236  53.2235414  38.0361477
  23.4956209  53.0305857  36.5301635  28.5170133  53.5304381  37.9414994
  29.3610133  53.7764381  37.0874994  28.6830133  52.5454381  38.8254994
  27.9191085  52.4001459  39.4700449  29.8430133  51.6754381  38.9244994
  30.2881066  51.4824497  37.9484120  30.9210133  52.1904381  39.8544994
  30.4145820  52.4918515  40.7714380  32.0530133  51.1874381  40.1954994
  32.5602413  50.8859013  39.2790409  32.7687822  51.6612334  40.8672832
  31.6269989  50.3090157  40.6802545  31.4670133  53.4734381  39.2064994
  30.6606247  54.1991111  39.1004894  32.2522677  53.8929347  39.8353856
  31.8757627  53.2390981  38.2235907  29.2450133  50.4044381  39.4624994
  28.1700133  50.4154381  40.0544994  29.9240133  49.2924381  39.2184994
  30.7043535  49.4334743  38.5929777  29.6190133  47.9614381  39.6294994
  28.8415454  47.9006447  40.3910420  29.2240133  47.0994381  38.4274994
  29.6340526  47.5674938  37.5325737  29.7420133  45.6554381  38.5334994
  29.3320047  45.1865452  39.4280009  29.4314260  45.0919604  37.6536533
  30.8303028  45.6628083  38.5940879  27.6910133  47.1734381  38.2224994
  27.2341657  46.6159153  39.0401542  27.4109395  48.2240787  38.2987388
  27.2010133  46.6104381  36.8844994  27.4803326  45.5596350  36.8077298
  26.1164978  46.7027685  36.8261864  27.6571086  47.1677974  36.0663139
  30.8170133  47.4464381  40.4214994  31.9590133  47.6684381  40.0314994
  30.5760133  46.7544381  41.5494994  29.6569272  46.8677665  41.9526579
  31.5790133  45.9974381  42.3064994  32.5556500  46.4711575  42.2071520
  31.2440133  45.7894381  43.8524994  30.1939039  45.4984483  43.8261257
  32.0350133  44.8024381  44.7714994  33.0851966  45.0930814  44.7987427
  31.6231995  44.8352298  45.7801791  31.9488929  43.7899159  44.3771883
  31.2930133  47.1474381  44.5834994  32.2945136  47.5316453  44.3898946
  30.5603531  47.7678406  44.0673510  31.0160133  47.1784381  46.0954994
  31.7486094  46.5585873  46.6124016  31.0883209  48.2039527  46.4577017
  30.0144490  46.7947801  46.2898582  31.8440133  44.6974381  41.5594994
  32.3500133  44.7004381  40.4404994  31.5080133  43.5734381  42.1814994
  30.8573740  43.6957686  42.9442595  31.9820133  42.2514381  41.8984994
  31.5027781  41.8893391  40.9889297  33.5310133  42.2144381  41.6954994
  33.8248908  41.1684425  41.7828405  33.7132392  42.5587077  40.6774757
  34.2940133  42.9984381  42.6044994  35.2274036  42.9095333  42.3983967
  31.5580133  41.4374381  43.0844994  30.4130133  41.0024381  43.1744994
  32.4800133  41.2634381  44.0244994  33.3946369  41.6193174  43.7859349
  32.2980133  40.6744381  45.3104994  31.2706868  40.8149899  45.6465715
  32.5920133  39.1494381  45.2354994  32.1928207  38.7494120  44.3034459
  33.6757308  39.0330158  45.2456143  31.9870133  38.3894381  46.4164994
  31.3890133  39.0284381  47.3214994  32.0990133  37.1344381  46.4024994
  33.3520133  41.4194381  46.1004994  34.2990133  41.9634381  45.5334994
  33.1850133  41.5054381  47.4174994  32.4067689  41.0178288  47.8378234
  34.0330133  42.3094381  48.2714994  34.2865536  43.2519478  47.7862244
  33.2590133  42.6204381  49.5924994  32.3099981  43.0951049  49.3431788
  33.0693539  41.6764240  50.1033486  34.0370133  43.5464381  50.5434994
  35.1430133  44.0124381  50.2594994  33.4090133  43.8264381  51.7234994
  33.8569745  44.4277239  52.4001721  32.4994314  43.4309707  51.9142008
  35.3410133  41.5694381  48.5364994  35.3440133  40.4624381  49.0724994
  36.4660133  42.1864381  48.1654994  36.3789197  43.0625318  47.6705510
  37.7920133  41.6904381  48.4514994  37.8447863  41.1891451  49.4179463
  38.3420133  40.7354381  47.3694994  38.3041385  41.2267531  46.3972468
  39.3740553  40.4751296  47.6045081  37.7365685  39.8294686  47.3420193
  38.6670133  42.9084381  48.5054994  38.3150133  43.9364381  47.9384994
  39.8100133  42.8264381  49.2004994  40.0445579  41.9376009  49.6188972
  40.6830133  43.9654381  49.4614994  40.1034242  44.7598647  49.9316717
  41.8570133  43.5874381  50.3994994  42.4065197  44.5033362  50.6169219
  41.4238588  43.1969337  51.3203596  42.7460133  42.6204381  49.8454994
  43.4464238  42.4322733  50.4744819  41.2390133  44.6204381  48.2274994
  41.4300133  45.8314381  48.1934994  41.5340133  43.8154381  47.2104994
  41.4148373  42.8269562  47.3802053  42.0360133  44.2324381  45.9254994
  42.9503409  44.8158610  46.0337677  42.3540133  42.9644381  45.1014994
  41.4388038  42.5117768  44.7199387  43.0250352  43.1818595  44.2705014
  43.0350133  41.9164381  45.9424994  44.3480133  41.9864381  46.3434994
  44.6010133  40.8804381  47.0854994  45.6049603  40.7584139  47.4920699
  43.5320133  40.1194381  47.1824994  43.4196163  39.2427733  47.6712997
  42.5380133  40.7604381  46.4624994  41.5452398  40.3163769  46.3896193
  41.0400133  45.0984381  45.2144994  41.3820133  46.1594381  44.6954994
  39.7770133  44.6704381  45.2344994  39.6333535  43.7168419  45.5346919
  38.6500133  45.3994381  44.7154994  38.8948785  45.8209172  43.7405658
  37.4350133  44.4534381  44.5544994  37.1496886  44.1011429  45.5457497
  36.6064696  45.0082056  44.1142173  37.7720133  43.2664381  43.6744994
  37.3730133  41.9714381  44.0464994  36.7512254  41.8456170  44.9328675
  37.7610133  40.8534381  43.2994994  37.4470302  39.8562154  43.6078227
  38.5480133  41.0164381  42.1524994  38.9940133  39.8904381  41.4264994
  38.7005204  39.0589920  41.8061822  38.8980133  42.3044381  41.7284994
  39.4793825  42.4389895  40.8163556  38.5010133  43.4194381  42.4764994
  38.7547812  44.4230669  42.1352793  38.3530133  46.6474381  45.5174994
  38.1050133  47.6964381  44.9384994  38.4360133  46.5694381  46.8514994
  38.5559676  45.6434883  47.2366324  38.3080133  47.6894381  47.7734994
  37.3534045  48.1902657  47.6122768  38.3690133  47.1994381  49.2464994
  39.2233358  46.5257443  49.3125975  38.5550085  48.0823193  49.8580765
  37.1060133  46.4784381  49.7564994  36.9658560  45.5414560  49.2174990
  37.2155536  46.2717064  50.8210956  35.8630133  47.3514381  49.5524994
  35.8710133  48.5444381  49.8794994  34.7800133  46.7404381  48.9894994
  33.9327105  47.2668449  48.8311479  34.8308134  45.7646661  48.7337852
  39.3320133  48.7734381  47.5964994  39.0250133  49.9564381  47.7144994
  40.5780133  48.3914381  47.3334994  40.7995175  47.4083265  47.4007812
  41.6460133  49.3144381  47.0324994  41.6836447  50.0785817  47.8088805
  43.0000133  48.6194381  46.9674994  42.9431609  47.8075715  46.2424196
  44.1060133  49.6074381  46.5464994  44.1637805  50.4193970  47.2714030
  45.0630451  49.0871864  46.5074157  43.8743161  50.0152860  45.5625903
  43.3330133  48.0874381  48.2444994  44.1867911  47.6511209  48.1966327
  41.3840133  50.0474381  45.7584994  41.5220133  51.2684381  45.7014994
  40.9650133  49.3154381  44.7224994  41.0649512  48.3112482  44.7639057
  40.6460133  49.9164381  43.4574994  41.3762180  50.6948290  43.2361220
  40.6660133  48.8874381  42.3194994  40.4343601  49.4130190  41.3931082
  41.6740568  48.4768642  42.2613828  39.7370133  47.8334381  42.5094994
  39.7918291  47.2217043  41.7716804  39.4360133  50.8174381  43.5274994
  39.4480133  51.9104381  42.9894994  38.4150133  50.4344381  44.2924994
  38.4933350  49.5478987  44.7700065  37.2430133  51.2514381  44.5464994
  36.6442032  51.3491347  43.6409714  36.3760133  50.5764381  45.6444994
  37.0460419  50.2478545  46.4389765  35.6753015  51.3109587  46.0414658
  35.6250133  49.4114381  45.1184994  35.3490133  48.3274381  45.9664994
  35.4459689  48.4457807  47.0457093  34.9520133  47.1024381  45.4324994
  34.8632185  46.2158393  46.0603210  34.6740133  47.0214381  44.0674994
  34.4300133  45.7754381  43.4784994  34.4791658  45.0488029  44.1039473
  34.6330133  48.1884381  43.2964994  34.1624438  48.1830479  42.3133231
  35.1940133  49.3534381  43.7884994  35.2994768  50.2235278  43.1404860
  37.5490133  52.6014381  45.1104994  37.0400133  53.6084381  44.6284994
  38.4170133  52.6394381  46.1154994  38.7689860  51.7602262  46.4664995
  38.7850133  53.8434381  46.8044994  37.8923547  54.3596596  47.1577346
  39.6740133  53.5044381  48.0224994  40.4425856  52.8021131  47.6997989
  40.1453414  54.4244285  48.3682848  38.8610133  52.8824381  49.1704994
  38.2387514  53.6693418  49.5967310  38.2242764  52.1089745  48.7410553
  39.7380133  52.2694381  50.2734994  40.3329935  51.4813833  49.8119072
  40.3981962  53.0574029  50.6359487  38.9420133  51.6864381  51.4514994
  39.6466287  51.2956956  52.1856234  38.3549311  52.4866293  51.9021962
  38.0370133  50.5994381  51.0084994  38.5808590  49.8576701  50.5912322
  37.5297771  50.2385706  51.8038522  37.3837443  50.9613997  50.3285564
  39.4290133  54.8834381  45.9424994  39.1550133  56.0694381  46.0964994
  40.2820133  54.4524381  45.0144994  40.5662446  53.4839622  45.0514632
  41.0400133  55.3574381  44.1814994  40.8173106  56.3629610  44.5384676
  42.5380133  55.1394381  44.2514994  43.0218498  55.4714485  43.3329290
  43.0550133  55.9824381  45.4394994  42.5719367  55.6506736  46.3585581
  44.1339971  55.8582227  45.5314975  42.8241946  57.0337213  45.2673748
  42.8360133  53.7764381  44.5084994  43.7879595  53.6591647  44.5490670
  40.4590133  55.5114381  42.8074994  40.9640133  56.2964381  42.0064994
  39.3310133  54.8404381  42.5404994  39.0406098  54.0766478  43.1341235
  38.4730133  55.2184381  41.4424994  39.0867640  55.4349026  40.5681125
  37.4720133  54.0934381  41.0784994  37.0334936  53.8529609  42.0469882
  36.7230151  54.5764431  40.4509583  37.9570133  52.7904381  40.3934994
  38.9052676  52.4739888  40.8279814  36.8980133  51.6914381  40.6154994
  35.9495382  52.0069908  40.1808499  37.2263872  50.7680412  40.1384150
  36.7685956  51.5214540  41.6843571  38.2230133  52.9244381  38.8884994
  38.9940707  53.6764056  38.7208247  38.5582614  51.9662488  38.4915318
  37.3059627  53.2259992  38.3823591  37.6700133  56.4174381  41.9234994
  37.5400133  57.4054381  41.2094994  37.1690133  56.3654381  43.1704994
  37.3054299  55.5105479  43.6907424  36.4320133  57.4534381  43.8074994
  35.5936872  57.7475155  43.1759719  35.9180133  57.1324381  45.2284994
  36.7590240  56.7914822  45.8322797  35.2760133  58.3794381  45.8934994
  34.4345801  58.7207191  45.2904920  34.9248424  58.1190749  46.8919936
  36.0171505  59.1754336  45.9656514  34.9100133  55.9624381  45.2544994
  33.9420848  56.3560698  44.9442266  35.2489609  55.2209634  44.5310152
  34.7760133  55.3054381  46.6354994  34.4366341  56.0462396  47.3594708
  34.0526194  54.4917967  46.5826953  35.7435114  54.9111350  46.9462605
  37.2970133  58.6824381  43.9214994  36.8670133  59.7774381  43.5714994
  38.5360133  58.5074381  44.3944994  38.8279534  57.5677274  44.6221268
  39.4480133  59.5984381  44.6784994  38.9394113  60.3032521  45.3362686
  40.7440133  59.1534381  45.3494994  41.2439138  58.4463844  44.6874761
  41.6880133  60.3434381  45.6394994  41.1889409  61.0507395  46.3018822
  42.5972823  59.9785457  46.1171840  41.9441547  60.8410137  44.7041328
  40.4580133  58.5154381  46.5884994  41.2786218  58.2391405  47.0030616
  39.7760133  60.3844381  43.4444994  39.7380133  61.6114381  43.4634994
  40.0600133  59.6784381  42.3474994  40.1288317  58.6758601  42.4484985
  40.3750133  60.2594381  41.0664994  41.1783453  60.9894178  41.1659305
  40.8390133  59.1424381  40.1044994  41.6118545  58.5315545  40.5710153
  39.9709873  58.5218154  39.8821069  41.3890133  59.7074381  38.7864994
  42.6010133  59.9104381  38.6614994  40.4910133  59.9224381  37.7844994
  40.8058648  60.2930241  36.8992682  39.5145564  59.7102528  37.9315028
  39.2240133  61.0554381  40.5114994  39.4210133  62.1564381  40.0154994
  38.0110133  60.5114381  40.6064994  37.9743656  59.5596136  40.9423364
  36.7880133  61.1164381  40.1244994  36.9300294  61.4939976  39.1118892
  35.6660133  60.0754381  40.1054994  35.5491566  59.6620651  41.1072811
  34.7379510  60.5602040  39.8025103  35.9990133  58.9394381  39.1164994
  37.0740332  58.7722253  39.1833800  35.4715152  58.0385811  39.4300349
  35.6380133  59.2354381  37.6514994  34.7310133  58.6004381  37.1024994
  36.3690133  60.1864381  37.0064994  36.1632487  60.4101679  36.0433238
  37.1136125  60.6637124  37.4942316  36.4200133  62.3704381  40.8564994
  36.0300133  63.3564381  40.2414994  36.6090133  62.3824381  42.1754994
  36.8762522  61.5281350  42.6433123  36.3740133  63.5584381  42.9794994
  35.4673561  64.0605732  42.6419610  36.2010133  63.1734381  44.4684994
  37.0937183  62.5845260  44.6791169  36.1984946  64.0652685  45.0951828
  34.9380133  62.3244381  44.7724994  34.9793999  61.4053914  44.1879130
  34.8700133  61.9764381  46.2714994  34.8281322  62.8950399  46.8567476
  33.9781866  61.3809129  46.4666806  35.7555355  61.4067582  46.5533075
  33.6290133  62.9984381  44.3104994  33.6645711  63.1622650  43.2334684
  32.7833390  62.3544620  44.5518104  33.5131848  63.9553539  44.8194146
  37.4810133  64.5854381  42.8274994  37.2800133  65.7554381  43.1484994
  38.6390133  64.1764381  42.2934994  38.7872705  63.1869432  42.1555900
  39.7300133  65.0824381  41.9964994  39.5580650  66.0337240  42.5000746
  41.0930133  64.5034381  42.4784994  41.8297630  65.3027910  42.3989129
  40.9730301  64.2234913  43.5250814  41.5360133  63.3744381  41.7334994
  42.3772235  63.0708272  42.0824776  39.7800133  65.4364381  40.5244994
  40.6800133  66.1564381  40.0974994  38.7920133  64.9844381  39.7414994
  38.1872485  64.2466082  40.0731106  38.5530133  65.5264381  38.4184994
  39.5072712  65.8104148  37.9748235  37.8550133  64.5024381  37.4814994
  36.9694222  64.1666374  38.0210043  37.5506259  65.0692492  36.6016281
  38.6860133  63.2754381  37.0414994  38.6546984  62.5261723  37.8325248
  38.2540031  62.8600869  36.1310311  40.1520133  63.6384381  36.7674994
  40.4660133  64.2454381  35.7384994  41.0650133  63.2554381  37.7074994
  42.0428539  63.4703691  37.5743305  40.7585255  62.7588790  38.5318753
  37.6680133  66.7124381  38.6494994  38.0280133  67.8204381  38.2624994
  36.5560133  66.4964381  39.3574994  36.2954339  65.5392618  39.5472657
  35.7240133  67.5464381  39.8814994  36.3513667  68.3403252  40.2868021
  34.8150133  68.1494381  38.7674994  34.6629862  67.3110080  38.0877774
  33.8508390  68.4897103  39.1452331  35.5030133  69.2954381  38.0184994
  36.1410133  70.1464381  38.6934994  35.2980133  69.3924381  36.7794994
  34.8450133  66.9504381  40.9494994  34.6300133  65.7404381  40.9704994
  34.2370133  67.7804381  41.8164994  34.8070133  69.0544381  42.2524994
  34.4400373  69.8518869  41.6063538  35.8937112  69.0036246  42.1846415
  34.3200133  69.1954381  43.6914994  34.2657732  70.2421321  43.9908131
  34.9654793  68.6534170  44.3826493  32.9280133  68.5584381  43.6294994
  32.2386435  69.3090132  43.2428405  32.5510039  68.1733675  44.5769614
  33.0730133  67.4054381  42.6124994  33.2598484  66.4345638  43.0714048
  31.8270133  67.3244381  41.7474994  30.7390133  67.3074381  42.3194994
  31.9630133  67.2674381  40.4164994  32.8992617  67.3877330  40.0572397
  30.8820133  67.1274381  39.4734994  29.9296986  67.2342093  39.9929181
  30.9660133  68.2134381  38.3594994  30.0208679  68.1907451  37.8170195
  31.0753405  69.1767230  38.8577259  32.0410133  68.0274381  37.4464994
  32.0301882  68.7297466  36.7920948  30.8570133  65.7504381  38.8714994
  30.0070133  65.4674381  38.0284994  31.7490133  64.8604381  39.3274994
  32.5629102  65.2003972  39.8195349  31.7200133  63.4624381  38.9254994
  31.1563158  63.4147145  37.9937984  33.0800133  62.8264381  38.7254994
  33.5228188  62.5810631  39.6908050  32.8980133  61.5354381  37.9004994
  32.4556510  61.7800821  36.9348051  33.8678952  61.0626306  37.7459586
  32.2417307  60.8502403  38.4370591  34.0480133  63.7794381  37.9714994
  34.2106321  64.6309536  38.6322392  34.9816708  63.2299428  37.8513403
  33.5690133  64.2794381  36.6014994  32.6355748  64.8294663  36.7209204
  34.3242393  64.9359365  36.1693620  33.4066112  63.4284546  35.9400218
  30.7550133  62.7464381  39.8584994  30.3040133  61.6494381  39.5464994
  30.3540133  63.4384381  40.9354994  31.0567445  64.1044442  41.2230824
  29.1590133  63.2984381  41.7554994  29.3482883  63.6615018  42.7656771
  28.0060133  64.1344381  41.1354994  27.9711122  63.9273587  40.0659204
  27.0698974  63.8197002  41.5967228  28.2050133  65.6394381  41.3584994
  27.9646491  65.8627953  42.3979403  29.2448038  65.9010339  41.1622711
  27.3060133  66.4914381  40.4534994  26.6360133  65.9994381  39.5404994
  27.3150133  67.8314381  40.7194994  26.7478533  68.4570033  40.1653342
  27.8887850  68.1905285  41.4691270  28.5950133  61.9514381  42.0834994
  28.7010133  61.4834381  43.2154994  27.9770133  61.3154381  41.0874994
  28.0109555  61.7779205  40.1902496  27.2670133  60.0694381  41.1854994
  26.7331197  60.0054419  42.1336351  26.2260133  59.9874381  40.0184994
  26.6633855  60.3318609  39.0813880  25.9671848  58.9321654  39.9318537
  24.9520133  60.8064381  40.3234994  25.3236120  61.7848732  40.6279331
  23.8940133  60.9804381  39.2244994  23.5215840  60.0023853  38.9198552
  23.0679746  61.5803797  39.6063773  24.3403240  61.4822496  38.3659586
  24.2290133  60.0584381  41.4094994  24.8692453  59.9843269  42.2885387
  23.3142152  60.5904159  41.6707370  23.9788072  59.0576525  41.0574708
  28.2390133  58.9284381  41.1064994  27.8810133  57.7754381  40.9164994
  29.5170133  59.2164381  41.3004994  29.7709566  60.1721396  41.5060394
  30.5560133  58.2714381  41.1084994  30.1981016  57.4147579  40.5374500
  31.6850133  58.9414381  40.3274994  31.2588641  59.2113410  39.3612445
  31.9324862  59.8474300  40.8807045  32.9490133  58.1164381  40.1124994
  33.5432384  58.6509039  39.3713222  33.4781521  58.1096892  41.0654258
  32.7240133  56.6754381  39.6434994  31.8757087  56.2518325  40.1811206
  32.5125480  56.6753940  38.5742091  33.9260133  55.8204381  39.8944994
  34.6357010  55.6877800  39.1882100  34.1160133  55.2654381  41.1114994
  33.9180133  55.9614381  42.2404994  33.6194340  56.9249902  42.1903238
  34.0683685  55.5189235  43.1358618  34.4450133  53.9634381  41.2124994
  34.5487115  53.4056389  40.3769116  34.5865613  53.5506812  42.1233752
  30.9820133  57.6784381  42.4144994  31.6860133  58.2984381  43.2114994
  30.5720133  56.4304381  42.6294994  29.7974405  56.1136237  42.0640218
  31.0120133  55.5954381  43.7084994  32.0347122  55.8634159  43.9737807
  30.1220133  55.7554381  44.9554994  29.5443566  56.6774309  44.8896113
  29.4429926  54.9074637  45.0447761  31.0000133  55.8154381  46.2134994
  31.1110133  54.8454381  46.9654994  31.6400133  57.0024381  46.4374994
  32.2331853  57.1077042  47.2481571  31.5168344  57.7688602  45.7913378
  31.1800133  54.2134381  43.1924994  31.4720133  54.0724381  42.0204994
  31.1110133  53.1964381  44.0514994  30.7863939  53.3613242  44.9935897
  31.6470133  51.8834381  43.7264994  32.0322705  51.7749634  42.7126408
  32.7600133  51.5834381  44.7284994  33.1713433  50.5853785  44.5775516
  33.8590133  52.6394381  44.4624994  33.4485302  53.6378065  44.6137102
  34.6899710  52.4808675  45.1498606  34.2139057  52.5446720  43.4362587
  32.2480133  51.5384381  46.1874994  31.7565792  52.4974404  46.3515352
  31.5047063  50.7414861  46.2089876  33.2830133  51.3004381  47.2904994
  34.0264455  52.0972979  47.2699346  32.7858606  51.2930043  48.2604907
  33.7745744  50.3413440  47.1273855  30.7060133  50.6804381  43.5824994
  31.2740133  49.6694381  43.1944994  29.3750133  50.6244381  43.7824994
  28.5160133  51.7734381  43.6844994  28.6627227  52.2329982  42.7070634
  28.7952681  52.4820898  44.4641970  27.1110133  51.2344381  43.8694994
  26.6919306  50.8752725  42.9295692  26.4474297  51.9847265  44.2994127
  27.3430133  50.0964381  44.8424994  26.5470873  49.3517278  44.8452229
  27.5030632  50.4601320  45.8574922  28.6280133  49.4794381  44.3024994
  29.2920562  49.0185713  45.0337636  28.1530133  48.4304381  43.3224994
  27.6950133  48.7344381  42.2274994  28.1560133  47.1894381  43.7914994
  28.9475216  46.9294186  44.3624669  27.2080133  46.1744381  43.4424994
  26.2069907  46.5539675  43.6474636  27.2380133  45.6184381  42.0154994
  27.5130216  46.4413163  41.3556948  28.2180133  44.4554381  41.8174994
  27.9433495  43.6319486  42.4766842  28.1791234  44.1192482  40.7813705
  29.2290536  44.7873869  42.0535252  25.9360133  45.2064381  41.6184994
  25.9688338  44.8605076  40.7235942  27.4570133  45.1704381  44.5314994
  28.3210133  45.3574381  45.3834994  26.6890133  44.0924381  44.5564994
  25.8803581  44.0192303  43.9558192  27.0070133  42.9804381  45.4094994
  27.9462078  43.1695530  45.9293538  25.8890133  42.7714381  46.4654994
  25.7035813  43.7274739  46.9551009  24.9874318  42.4499508  45.9440622
  26.2440133  41.7984381  47.4434994  25.5264617  41.7017922  48.0738795
  27.0560133  41.8274381  44.4634994  26.5480133  41.9004381  43.3444994
  27.6320133  40.7144381  44.9134994  28.0962166  40.7781310  45.8082384
  27.6610133  39.4484381  44.2144994  27.8868964  39.6012607  43.1591695
  28.7660133  38.5484381  44.8334994  28.6978503  37.5602185  44.3786640
  29.7360188  38.9883432  44.6018251  28.6230133  38.4314381  46.2474994
  29.3204414  37.8702567  46.5942982  26.3090133  38.7514381  44.3084994
  26.2110133  37.5274381  44.2574994  25.2390133  39.5554381  44.3464994
  25.4659732  40.5004922  44.6212016  23.8620133  39.2384381  44.0624994
  23.6337990  38.2326856  44.4153159  22.9180133  40.2394381  44.7754994
  23.2639579  41.2079495  44.4143800  21.8856630  40.0831753  44.4625542
  22.9990133  40.2064381  46.3224994  24.0431195  40.3037536  46.6199433
  22.1790133  41.3534381  46.9444994  21.1346418  41.2565263  46.6478599
  22.2534628  41.3063629  48.0309348  22.5681231  42.3098546  46.5952697
  22.5670133  38.8464381  46.9034994  23.2169702  38.0620837  46.5156286
  22.6416643  38.8749307  47.9905673  21.5363455  38.6387766  46.6159244
  23.6940133  39.3214381  42.5484994  22.6220133  39.6284381  42.0294994
  24.7840133  39.0234381  41.8394994  25.5837968  38.9912101  42.4554597
  25.0060133  38.8854381  40.4284994  26.0717103  38.7668715  40.2327160
  24.2590133  37.6404381  39.8784994  23.1882812  37.7762211  40.0307982
  24.4650219  37.5485592  38.8120948  24.6870133  36.4594381  40.5474994
  24.2144804  35.7022844  40.1939024  24.7180133  40.0904381  39.5654994
  24.3960133  39.9454381  38.3884994  24.9150133  41.2854381  40.1254994
  24.7397294  41.3084531  41.1199064  25.1720133  42.5444381  39.4404994
  25.0047320  43.3969134  40.0988320  26.6390133  42.5944381  38.9254994
  26.9576165  43.6364786  38.8982265  27.5940133  41.7874381  39.8354994
  27.2762980  40.7451302  39.8629011  28.6087195  41.8472071  39.4419282
  27.5711195  42.2003452  40.8440053  26.8260133  42.1104381  37.5974994
  27.7539540  42.1765560  37.3605292  24.1750133  42.9554381  38.3454994
  24.5430133  43.6134381  37.3714994  22.8980133  42.5944381  38.4894994
  22.5597074  42.2615519  39.3810347  21.9760133  42.6124381  37.3654994
  22.5173418  42.6668978  36.4209906  21.1480133  41.2964381  37.3884994
  21.8748770  40.4843766  37.4065170  20.5926900  41.3071781  38.3263697
  20.1690133  41.0844381  36.2134994  19.3193647  41.7570684  36.3308300
  20.6865565  41.3127687  35.2817734  19.6730133  39.6384381  36.1794994
  19.0460133  39.2074381  37.1824994  19.9110133  38.9514381  35.1494994
  21.0470133  43.8164381  37.3664994  20.2660133  44.0254381  36.4384994
  21.1300133  44.6624381  38.3944994  21.9220641  44.6226514  39.0199367
  20.0630133  45.6014381  38.6934994  19.1428839  45.2878129  38.2004473
  19.8120133  45.6664381  40.2014994  19.0810627  46.4439857  40.4233800
  19.2670133  44.2994381  40.6694994  19.9976656  43.5213999  40.4483583
  19.0828028  44.3295041  41.7433996  18.3353417  44.0811536  40.1475411
  21.0060133  45.9604381  40.9224994  20.8124405  45.9935058  41.8621996
  20.2680133  47.0184381  38.1794994  19.4100133  47.8734381  38.3884994
  21.3860133  47.2904381  37.5004994  21.9874961  46.5372626  37.1987634
  21.8140133  48.6584381  37.2484994  21.1429650  49.3630517  37.7397355
  23.2470133  48.8604381  37.8144994  23.8158776  48.0461976  37.3656061
  23.6568000  49.8147779  37.4837271  23.3410133  48.7654381  39.3634994
  22.9295902  47.8062790  39.6778969  24.8000133  48.8804381  39.8444994
  25.2119973  49.8396016  39.5308542  24.8312770  48.8102439  40.9317878
  25.3905410  48.0729517  39.4116677  22.4610133  49.8084381  40.0834994
  21.4179068  49.6590321  39.8047413  22.5684773  49.6928444  41.1620127
  22.7740989  50.8113086  39.7931082  21.7730133  49.0764381  35.7954994
  22.2800133  50.1364381  35.4324994  21.1170133  48.2824381  34.9524994
  20.8119933  47.3855238  35.3026521  20.8430133  48.6094381  33.5604994
  21.3476799  49.5412503  33.3052805  21.3250133  47.5174381  32.6094994
  20.8887439  47.6602417  31.6208759  22.8620133  47.6114381  32.5114994
  23.2990471  47.4682621  33.4997310  23.2314170  46.8397244  31.8361490
  23.1428913  48.5928276  32.1292918  20.9630133  46.2174381  33.0694994
  21.2814805  45.5581349  32.4486143  19.3490133  48.8074381  33.4274994
  18.7900133  48.7554381  32.3354994  18.6760133  49.0534381  34.5504994
  19.1734774  48.9590890  35.4244142  17.2990133  49.4934381  34.5894994
  16.7883827  49.2281049  33.6637814  16.5740133  48.7984381  35.7724994
  17.0016600  49.1876126  36.6964912  15.5195309  49.0690956  35.7185434
  16.7120133  47.2624381  35.7494994  16.3101246  46.9165756  34.7971521
  17.7765246  47.0333242  35.7987394  15.9810133  46.5524381  36.9024994
  16.3629810  46.9499001  37.8428311  14.9174631  46.7761646  36.8193920
  16.1880133  45.0304381  36.8684994  15.8001128  44.6513907  35.9230065
  17.2571226  44.8270637  36.9296833  15.4930133  44.3594381  37.9914994
  14.5022835  44.5474089  37.9347442  15.6503187  43.3632162  37.9376746
  15.8526053  44.7102203  38.8677097  17.3410133  50.9874381  34.8404994
  16.3340133  51.6794381  34.7074994  18.5360133  51.4954381  35.1504994
  19.2678198  50.8072622  35.2552497  18.8860133  52.8874381  35.2674994
  17.9863772  53.4836745  35.4199991  19.8400133  53.1074381  36.4784994
  20.6779157  52.4301772  36.3131619  20.2041918  54.1343303  36.5095860
  19.1620133  52.7654381  37.8104994  17.9090133  52.6654381  37.8584994
  19.9100133  52.6684381  38.8204994  19.6530133  53.1994381  34.0114994
  20.0330133  52.2944381  33.2694994  19.8960133  54.4864381  33.7554994
  19.4497960  55.1983564  34.3160007  20.7980133  54.9054381  32.7064994
  20.9236556  54.1007070  31.9821231  20.2310133  56.1474381  31.9734994
  19.1963751  55.9428405  31.6982489  20.2636281  56.9958929  32.6569909
  20.9820133  56.4524381  30.8024994  20.6059617  57.2243905  30.3732274
  22.0830133  55.2464381  33.4314994  22.1120133  56.2464381  34.1494994
  23.1530133  54.4424381  33.3274994  23.2120133  53.2364381  32.5034994
  22.9066778  53.5032811  31.4917360  22.5099516  52.5112540  32.9149802
  24.6560133  52.7504381  32.5704994  25.2609531  53.1755518  31.7696091
  24.7156756  51.6627524  32.5320069  25.0940133  53.2724381  33.9374994
  26.1686540  53.4494734  33.8938545  24.8699114  52.6038474  34.7686820
  24.3510133  54.6074381  34.1224994  24.0672841  54.7757374  35.1613793
  25.1550133  55.7794381  33.6264994  25.7940133  56.4384381  34.4384994
  25.1980133  55.9674381  32.3064994  24.7074338  55.2325793  31.8172003
  25.9510133  56.9314381  31.5244994  25.7222311  56.7828643  30.4691873
  25.6120133  58.4014381  31.9044994  25.7028608  58.5415819  32.9816278
  26.3422158  59.0294137  31.3940574  24.1980133  58.7934381  31.4554994
  23.3630133  57.9014381  31.1534994  23.9260133  60.0244381  31.4544994
  27.4380133  56.6914381  31.5034994  28.1060133  56.9964381  30.5164994
  27.9520133  56.0694381  32.5554994  27.2844148  55.8718797  33.2871975
  29.2960133  55.6204381  32.7264994  29.7720240  55.3208854  31.7928072
  30.1570133  56.6754381  33.4214994  29.5763296  57.1272473  34.2257227
  31.4320133  56.0484381  34.0014994  32.0134885  55.5968002  33.1977516
  32.0269188  56.8198889  34.4904287  31.1625028  55.2826578  34.7288534
  30.4850133  57.8924381  32.5124994  29.5315770  58.3434399  32.2374407
  31.0555289  58.5933281  33.1218963  31.2770133  57.5574381  31.2424994
  30.7068874  56.8569038  30.6323289  31.4569707  58.4702027  30.6745423
  32.2308389  57.1067896  31.5167849  29.0740133  54.4384381  33.6284994
  28.2470133  54.5134381  34.5324994  29.7920133  53.3364381  33.4074994
  30.3876227  53.2733723  32.5942519  29.6640133  52.1744381  34.2534994
  29.3793381  52.4770187  35.2612217  28.5730133  51.2244381  33.6944994
  27.8104613  51.9049167  33.3156031  29.0094484  50.6698224  32.8638214
  27.9270133  50.2304381  34.6974994  28.5819638  49.3601379  34.7389536
  27.7170133  50.7774381  36.1094994  27.0617450  51.6475383  36.0689052
  27.2611114  50.0086986  36.7334336  28.6782404  51.0666466  36.5343538
  26.5650133  49.7324381  34.1774994  26.7033600  49.2257933  33.2223708
  26.1326198  49.0376247  34.8974796  25.8940521  50.5810518  34.0442153
  31.0410133  51.5724381  34.3424994  31.8010133  51.5734381  33.3764994
  31.4230133  51.1254381  35.5394994  30.7389589  51.1090013  36.2823983
  32.7680133  50.6814381  35.8354994  33.3672476  50.4935996  34.9445818
  33.5310133  51.6104381  36.7744994  32.9081243  51.8055634  37.6474460
  34.8750133  50.9844381  37.2284994  35.4986727  50.7894439  36.3560735
  35.3907139  51.6746139  37.8961902  34.6817751  50.0485774  37.7528305
  33.6670133  53.0134381  36.1424994  34.2047169  52.8978319  35.2014304
  32.6606551  53.3813430  35.9425279  34.4070133  54.0124381  37.0324994
  35.4136804  53.6454146  37.2325372  34.4660408  54.9761797  36.5267158
  33.8696193  54.1289239  37.9736363  32.6310133  49.3344381  36.4574994
  31.9450133  49.1944381  37.4544994  33.2720133  48.3114381  35.8914994
  33.8127326  48.4397483  35.0481380  33.1580133  46.9744381  36.4374994
  32.5300696  47.0062089  37.3278793  32.5330133  45.9894381  35.4284994
  33.0484019  46.1233113  34.4774201  32.6174382  44.9494176  35.7436659
  31.0530133  46.3224381  35.2334994  30.6490133  47.4844381  35.1334994
  30.2020133  45.2644381  35.2464994  29.2110707  45.4157868  35.1231056
  30.5637893  44.3308809  35.3795032  34.5210133  46.5294381  36.8554994
  35.5220133  47.1004381  36.4304994  34.5740133  45.5634381  37.7764994
  33.7300137  45.0637106  38.0174071  35.7980133  45.2104381  38.4594994
  36.5919458  45.8908482  38.1515832  35.6380133  45.3014381  39.9754994
  34.6209673  44.9122628  40.0230316  36.3004224  44.6571108  40.5535623
  35.6700133  46.7284381  40.5604994  34.8620041  46.8271684  41.2853954
  37.0130133  47.0124381  41.2494994  37.8215220  46.9143471  40.5250750
  37.0080870  48.0250729  41.6527948  37.1638823  46.2997277  42.0602909
  35.2210133  47.9224381  39.6954994  34.1827668  47.7833725  39.3941617
  35.3113810  48.8433855  40.2715121  35.8508998  47.9861734  38.8082115
  36.2160133  43.8114381  38.1114994  37.0720133  43.6314381  37.2504994
  35.6610133  42.8044381  38.8004994  35.0380369  43.0163046  39.5667319
  36.0850133  41.4334381  38.6204994  37.1430235  41.4273797  38.3584364
  35.8820133  40.5584381  39.9114994  36.7512439  39.9011058  39.8902435
  35.9131919  41.1721817  40.8117475  34.5950133  39.7084381  39.9134994
  33.5370133  40.1984381  39.4414994  34.6410133  38.5904381  40.4914994
  35.4880133  40.8434381  37.3714994  34.5740133  41.4114381  36.7784994
  35.9940133  39.6774381  36.9714994  36.6852409  39.2583223  37.5770122
  35.6320133  38.9794381  35.7584994  35.9095176  39.5735086  34.8877694
  36.3780133  37.6164381  35.6884994  36.0869266  37.0323632  36.5615540
  36.1171015  37.0693721  34.7825502  37.8990133  37.8184381  35.7184994
  38.5140133  38.0794381  34.6794994  38.5190133  37.6504381  36.9244994
  39.5190669  37.7723825  36.9960685  37.9744694  37.4050662  37.7389718
  34.1490133  38.6844381  35.6574994  33.5390133  38.8894381  34.6124994
  33.5530133  38.2294381  36.7614994  34.1641156  38.0296686  37.5404382
  32.1450133  37.9304381  36.9004994  31.8242344  37.2129162  36.1452760
  31.9130133  37.3084381  38.3074994  32.2925975  36.2897589  38.2280773
  32.5540795  37.8834326  38.9757175  30.4800133  37.2794381  38.8704994
  30.1299553  38.3093276  38.9404113  29.8567485  36.7315777  38.1637519
  30.3920133  36.6104381  40.2604994  29.3387565  36.5939366  40.5406363
  30.7530961  35.5883551  40.1461963  31.2050133  37.3224381  41.3604994
  32.2513459  37.3486169  41.0561912  30.8314172  38.3412561  41.4631392
  31.0860133  36.6184381  42.6624994  31.4325425  35.6744923  42.5677170
  31.6279772  37.1075614  43.3604489  30.1165844  36.5944455  42.9448661
  31.2370133  39.1144381  36.6824994  30.2460133  39.0204381  35.9574994
  31.5850133  40.2534381  37.2844994  32.4140268  40.2246347  37.8606993
  30.8840133  41.5084381  37.1564994  29.8512023  41.3896662  37.4840568
  31.5580133  42.5734381  38.0344994  32.5904095  42.7101568  37.7126826
  31.0203818  43.5168429  37.9394207  31.5422152  42.2501370  39.0753289
  30.8940133  42.0294381  35.7534994  29.8500133  42.4054381  35.2224994
  32.0730133  42.0244381  35.1264994  32.8524495  41.6230383  35.6279541
  32.3040133  42.5304381  33.7914994  32.0052448  43.5757454  33.7129557
  33.7510133  42.3874381  33.3754994  34.0658548  41.3565061  33.5372229
  33.9240133  42.7494381  31.8884994  33.6097884  43.7804476  31.7260719
  34.9714210  42.6407429  31.6070333  33.3134381  42.0836813  31.2785281
  34.6720133  43.2474381  34.2554994  34.7561477  44.2488048  33.8332593
  34.2637084  43.3120920  35.2640659  36.0490133  42.6014381  34.3064994
  36.4581850  42.5368591  33.2982792  36.7107616  43.2039646  34.9287134
  35.9657451  41.6001447  34.7290841  31.4850133  41.7724381  32.7864994
  30.8220133  42.3694381  31.9444994  31.5110133  40.4414381  32.8904994
  31.9922063  40.0601364  33.6924730  30.8880133  39.5264381  31.9694994
  31.3051756  39.6496058  30.9700473  31.1490133  38.0724381  32.4394994
  32.2138747  38.0001007  32.6607160  30.5774775  37.9313850  33.3568602
  30.7620133  36.9854381  31.4224994  29.7189002  37.1414636  31.1474141
  31.3922120  37.1119684  30.5421916  30.9380133  35.5614381  31.9784994
  31.9318261  35.4980500  32.4216891  30.1853483  35.4113561  32.7524957
  30.7880133  34.4774381  30.9024994  29.7669821  34.5020442  30.5217234
  31.4831865  34.6922132  30.0908929  31.0760133  33.1334381  31.4564994
  30.4316805  32.9340507  32.2082837  30.9704099  32.4400421  30.7297602
  32.0222191  33.1102954  31.8090021  29.4020133  39.7414381  31.9344994
  28.7950133  39.7734381  30.8644994  28.8070133  39.9204381  33.1164994
  29.3619501  39.7837465  33.9492419  27.4050133  40.1914381  33.2694994
  26.8233344  39.4559410  32.7138081  27.0010133  40.1174381  34.7584994
  27.3419099  39.1529517  35.1348699  27.5329849  40.9168009  35.2743729
  25.4870133  40.2614381  35.0114994  25.3214438  40.1366272  36.0815975
  25.2010077  41.2707098  34.7154026  24.6340133  39.2384381  34.2374994
  24.7872846  39.4238888  33.1743837  25.0065221  38.2456782  34.4900160
  23.1370133  39.3194381  34.5594994  23.0008245  39.1516421  35.6278616
  22.7781819  40.3154361  34.3000248  22.3700133  38.3044381  33.7984994
  22.7020687  37.3814297  34.0391122  21.3897077  38.3803894  34.0294370
  22.4957305  38.4600059  32.8085030  26.9840133  41.4984381  32.6644994
  25.9580133  41.5684381  31.9964994  27.7720133  42.5584381  32.8624994
  28.5284387  42.5325450  33.5312666  27.4510133  43.8204381  32.2414994
  26.3809902  44.0032227  32.3401879  28.2030133  44.9784381  32.8804994
  27.9612838  44.9194789  33.9417203  29.2780740  44.8589457  32.7460892
  27.7650133  46.3534381  32.3284994  27.9984872  46.3703975  31.2639323
  26.2640133  46.6394381  32.5294994  26.0298521  46.6231015  33.5939244
  26.0224534  47.6202335  32.1198778  25.6766327  45.8775410  32.0170570
  28.5980133  47.4464381  32.9674994  29.6508889  47.2828579  32.7377299
  28.2877765  48.4156615  32.5770378  28.4553342  47.4280156  34.0479633
  27.6050133  43.8404381  30.7474994  26.7720133  44.4174381  30.0634994
  28.6350133  43.1824381  30.2084994  29.3234915  42.7927562  30.8363889
  28.8660133  43.0704381  28.7754994  28.9201160  44.0610086  28.3238999
  30.1600133  42.3164381  28.4574994  30.2023336  41.4399767  29.1041243
  30.2470133  41.8704381  26.9784994  30.2052188  42.7464549  26.3312370
  31.1853761  41.3412225  26.8126478  29.4118198  41.2089894  26.7481973
  31.3460133  43.2394381  28.7934994  31.3146242  43.5018720  29.8509705
  32.2813568  42.7241060  28.5751760  31.2827253  44.1465861  28.1925186
  27.6720133  42.4134381  28.1094994  27.2010133  42.8664381  27.0684994
  27.1270133  41.3754381  28.7464994  27.6568119  40.9663949  29.5028700
  25.8750133  40.7584381  28.3754994  25.9028787  40.4244086  27.3383171
  25.6370133  39.5184381  29.2924994  26.2802577  38.7374911  28.8869655
  26.0036587  39.8168054  30.2746644  24.1910133  38.9794381  29.4234994
  23.5115677  39.8118474  29.6066638  23.9395174  38.5081339  28.4733829
  24.0570133  37.9514381  30.5554994  25.0960133  37.5154381  31.1184994
  22.8890133  37.6104381  30.8884994  24.6780133  41.6834381  28.4264994
  23.9270133  41.7764381  27.4574994  24.5080133  42.4064381  29.5384994
  25.1641267  42.2537381  30.2910267  23.4050133  43.3234381  29.7624994
  22.4604091  42.8079062  29.5891530  23.4170133  43.8584381  31.2134994
  24.4604524  44.1281946  31.3764891  22.7956133  44.7508292  31.2883325
  22.9770133  42.8334381  32.2834994  23.4626829  41.8783337  32.0834955
  23.3720133  43.3254381  33.6874994  22.8863261  44.2803401  33.8884194
  23.0562270  42.5941256  34.4315167  24.4535990  43.4507475  33.7381976
  21.4680133  42.5234381  32.2144994  21.2255129  42.1120249  31.2346871
  21.2098283  41.7984726  32.9864235  20.9005484  43.4403824  32.3735452
  23.3810133  44.4714381  28.7974994  22.3190133  44.8234381  28.2964994
  24.5550133  45.0344381  28.5024994  25.3615506  44.6011550  28.9289532
  24.7720133  46.1154381  27.5664994  24.3581549  47.0443422  27.9588736
  26.2970133  46.3074381  27.3414994  26.7590704  45.3416829  27.1367572
  26.4495409  46.9704489  26.4898821  26.9720133  46.9214381  28.5644994
  26.3260133  47.4324381  29.4834994  28.3360133  46.8494381  28.5534994
  28.8650541  47.2314383  29.3244025  28.8094333  46.4145206  27.7745121
  24.2340133  45.7664381  26.2064994  23.3980133  46.4844381  25.6624994
  24.6790133  44.6244381  25.6754994  25.3552066  44.1218379  26.2325049
  24.3560133  44.1124381  24.3634994  24.5164159  44.8662739  23.5927195
  25.1720133  42.8574381  24.0284994  25.1075831  42.1703008  24.8721768
  24.6460133  42.1564381  22.7504994  24.7105659  42.8428487  21.9062400
  25.2494773  41.2720594  22.5460335  23.6074854  41.8606272  22.8990083
  26.6730133  43.2264381  23.8854994  26.7811435  43.7792569  22.9523328
  26.9260918  43.8760013  24.7234245  27.6150133  42.0164381  23.8744994
  27.3628290  41.3666032  23.0365152  28.6449575  42.3580740  23.7715474
  27.5077755  41.4633460  24.8076066  22.8710133  43.8584381  24.2454994
  22.2540133  44.2064381  23.2394994  22.2770133  43.2824381  25.2944994
  22.8719818  42.9705440  26.0487102  20.8650133  42.9934381  25.3724994
  20.5626596  42.3851034  24.5200850  20.5480133  42.2134381  26.6754994
  21.0742521  42.7060035  27.4931493  19.4732412  42.2756914  26.8460556
  20.9730133  40.7314381  26.6094994  20.3336967  40.2015510  25.9033870
  22.0111800  40.6563187  26.2859735  20.8390133  40.0664381  27.9874994
  20.5360133  40.7164381  28.9934994  21.0820133  38.7234381  28.0224994
  21.0114899  38.2232074  28.8970834  21.3312158  38.2361428  27.1736515
  19.9580133  44.1914381  25.2654994  18.9650133  44.1584381  24.5404994
  20.2960133  45.2734381  25.9684994  21.0598507  45.2054092  26.6257846
  19.4930133  46.4784381  25.9714994  18.4567263  46.1573250  25.8661677
  19.6200133  47.3004381  27.2444994  19.3616368  48.3405169  27.0455578
  18.6490133  46.7214381  28.2944994  18.9070702  45.6814479  28.4943164
  18.7244991  47.2976141  29.2166828  17.6285256  46.7756307  27.9153313
  20.9310133  47.2044381  27.7704994  20.9931934  47.7284511  28.5724622
  19.6940133  47.3164381  24.7294994  18.7790133  48.0324381  24.3244994
  20.8850133  47.2384381  24.1194994  21.5326085  46.6275892  24.5965565
  21.3770133  48.0184381  22.9754994  22.3565169  47.6281300  22.6992176
  20.4700133  47.9744381  21.7474994  19.5609317  48.5338911  21.9681420
  21.1640133  48.5874381  20.5124994  22.0729976  48.0281867  20.2909478
  20.4912036  48.5402401  19.6562293  21.4186074  49.6273748  20.7169840
  20.1300133  46.6244381  21.4494994  19.5600772  46.6009737  20.6773449
  21.6940133  49.4414381  23.3954994  22.6120133  50.0754381  22.8764994
  21.0070133  49.9134381  24.4364994  20.1449304  49.4250631  24.6324641
  21.3730133  51.0154381  25.2824994  21.8454815  51.7724720  24.6565819
  20.2020133  51.6564381  26.0234994  19.9909065  51.0869039  26.9285767
  20.5590133  53.1074381  26.4014994  20.7698109  53.6777504  25.4968405
  19.7213628  53.5622997  26.9302163  21.4386895  53.1098362  27.0451333
  19.0360133  51.6734381  25.2074994  18.3129598  52.0796265  25.6910332
  22.3230133  50.3474381  26.2384994  22.2370133  49.1444381  26.4564994
  23.2800133  51.0974381  26.7774994  23.3590999  52.0368472  26.4150699
  24.3040133  50.6244381  27.7004994  24.8803178  51.4784131  28.0564474
  23.6900133  49.8804381  28.9414994  23.4708359  48.8274191  28.7648314
  24.3997357  49.9702970  29.7638859  22.3960133  50.5204381  29.4124994
  22.2560133  51.9144381  29.4944994  23.1358941  52.5387960  29.3393002
  21.0170133  52.5064381  29.7694994  20.9260288  53.5918290  29.8113206
  19.8960133  51.7024381  29.9904994  18.9247862  52.1544748  30.1916971
  20.0250133  50.3104381  29.9524994  19.1529298  49.6782157  30.1194290
  21.2720133  49.7294381  29.7004994  21.3833202  48.6454310  29.7257843
  25.3750133  49.8164381  26.9944994  26.4420133  49.5994381  27.5514994
  25.1640133  49.5064381  25.7064994  24.2256374  49.6497293  25.3615102
  26.1780133  49.0504381  24.7734994  26.9316464  48.4700257  25.3057192
  25.5510133  48.1574381  23.6734994  24.8986844  47.3834102  24.0777853
  24.9787693  48.8022718  23.0065465  26.5740133  47.4564381  22.8214994
  26.6750133  47.5864381  21.4544994  26.1111634  48.1785895  20.8616000
  27.6750133  46.7704381  21.0444994  27.9085980  46.7400244  19.9802569
  28.2090133  46.1294381  22.0664994  27.5210133  46.5524381  23.1904994
  27.7826052  46.1551563  24.1712329  26.7200133  50.3014381  24.1114994
  27.3890133  50.2434381  23.0824994  26.4320133  51.4614381  24.7044994
  25.7968589  51.4398099  25.4894901  26.9690133  52.7224381  24.3024994
  27.7834566  52.5622237  23.5960203  25.8820133  53.5754381  23.6164994
  25.0637072  53.7520630  24.3145530  26.3088897  54.5300204  23.3088480
  25.5043022  53.0477972  22.7406977  27.4920133  53.5134381  25.4754994
  28.1800133  54.5144381  25.2794994  27.1990133  53.0764381  26.7044994
  26.6593903  52.2289053  26.8074292  27.5670133  53.8064381  27.9014994
  28.0388447  54.7496937  27.6262846  26.3120133  54.1124381  28.7654994
  25.9517316  53.1233799  29.0484486  26.5811732  54.6707425  29.6621315
  25.1900133  54.8734381  27.9974994  24.8843848  54.2547940  27.1537153
  23.9650133  55.1784381  28.8804994  24.2697896  55.7974744  29.7243029
  23.2160433  55.7093250  28.2928739  23.5412466  54.2446185  29.2499627
  25.6800133  56.1774381  27.3364994  26.4697255  55.9482378  26.6210125
  24.8494768  56.6573326  26.8188011  26.0677232  56.8498820  28.1017439
  28.5740133  52.9564381  28.6004994  28.2390133  51.8704381  29.0694994
  29.8230133  53.4394381  28.6024994  29.8285502  54.3595438  28.1859971
  31.1010133  52.8204381  28.9264994  31.4885134  52.2170568  28.1056012
  32.1360133  53.8864381  29.2794994  31.8282622  54.8129310  28.7947312
  32.2830133  54.1234381  30.7884994  32.5912159  53.1974386  31.2739227
  33.0347029  54.8929247  30.9644318  31.3276827  54.4485307  31.2005173
  33.4070133  53.5674381  28.7444994  34.0353930  54.2533084  28.9818202
  31.0550133  51.7054381  29.9404994  30.3150133  51.7594381  30.9174994
  31.8480133  50.6604381  29.7094994  32.3388829  50.5996536  28.8289021
  32.0040133  49.5834381  30.6544994  31.5709639  49.9132242  31.5988556
  31.3360133  48.2974381  30.2414994  31.6607661  48.0395648  29.2334631
  31.7070133  47.1524381  31.2104994  31.3821375  47.4094034  32.2187276
  31.2139262  46.2334527  30.8935924  32.7870581  47.0056130  31.2036969
  29.9350133  48.5094381  30.2834994  29.4815891  47.7039693  30.0242181
  33.4720133  49.3964381  30.7994994  34.1620133  49.1104381  29.8254994
  33.9580133  49.5734381  32.0254994  33.2892733  49.8304107  32.7374342
  35.3330133  49.4104381  32.4094994  35.9908098  49.6387863  31.5708934
  35.6580133  50.3764381  33.5684994  34.6963715  50.8774401  33.6795900
  35.8848639  49.8207588  34.4783672  36.7540133  51.4224381  33.3214994
  36.3760142  52.2079504  32.6671388  37.1630133  52.0304381  34.6634994
  37.5415756  51.2455481  35.3182797  37.9417991  52.7759677  34.5029409
  36.2976445  52.5038419  35.1273161  37.9500133  50.9204381  32.5244994
  37.6167198  50.5787319  31.5445750  38.6703421  51.7291369  32.4010736
  38.4205151  50.0935086  33.0563967  35.5460133  47.9834381  32.8804994
  34.5990133  47.2144381  33.0224994  36.8010133  47.6234381  33.1584994
  37.5445818  48.2554200  32.8981072  37.1470133  46.4164381  33.8804994
  36.2810426  46.1227860  34.4737636  37.5550133  45.2274381  32.9794994
  38.4938134  45.4766574  32.4848850  37.6991646  44.3507073  33.6108975
  36.5730133  44.9504381  32.0094994  36.8570502  44.2095570  31.4691123
  38.3520133  46.7024381  34.7004994  39.0250133  47.7064381  34.5004994
  38.6530133  45.7954381  35.6234994  37.9859005  45.0532656  35.7791909
  39.9110133  45.7384381  36.3184994  40.5671807  46.5302669  35.9571815
  39.7020133  45.9254381  37.8434994  38.8924129  45.2439596  38.1047148
  40.5782245  45.6974459  38.4504372  39.2530133  47.2934381  38.2384994
  38.1360133  47.9494381  37.7784994  37.5063715  47.6337030  37.0546470
  38.0310133  49.1034381  38.4754994  37.1961319  49.7665025  38.2487452
  39.0120133  49.2164381  39.3464994  39.7950133  48.0874381  39.1954994
  40.6893231  47.9588843  39.8052414  40.4110133  44.3304381  36.1454994
  41.1430133  43.8324381  36.9964994  39.9820133  43.6374381  35.0854994
  39.3997887  44.0606109  34.3769526  40.2150133  42.2164381  35.0194994
  41.1024442  42.1102375  35.6434282  39.0850133  41.3584381  35.6204994
  38.1922171  41.4472647  35.0015286  39.3996467  40.3154366  35.6559128
  38.8626821  41.7048049  36.6298051  40.5470133  41.7144381  33.6674994
  40.3100133  42.3994381  32.6774994  41.1380133  40.5144381  33.6564994
  41.2438373  40.1882806  34.6065109  41.6970133  39.7134381  32.5904994
  42.7347200  39.9966638  32.4142972  41.6520133  38.2164381  32.9764994
  40.6074698  37.9501067  33.1380409  42.0452353  37.6479248  32.1337247
  42.4660133  37.8884381  34.2404994  43.5210986  38.0202067  34.0006393
  42.1786059  38.5990869  35.0154040  42.2310133  36.4564381  34.7464994
  41.1584363  36.3205742  34.8851301  42.5882466  35.7667336  33.9817828
  42.9570133  36.1744381  36.0684994  44.0321276  36.2057606  35.8917261
  42.6852118  36.9456460  36.7892361  42.5840133  34.8464381  36.6034994
  42.8361789  34.1316408  35.9359838  43.0733559  34.6838029  37.4719427
  41.5878874  34.8173487  36.7677736  41.0910133  39.9004381  31.2154994
  39.8810133  40.0664381  31.0624994  41.9420133  39.8774381  30.1884994
  42.9198454  39.7499837  30.4069008  41.5590133  39.9904381  28.7984994
  40.8268036  40.7886792  28.6769296  42.8010133  40.3204381  27.9294994
  43.5628949  39.5812190  28.1768672  42.4988801  40.1960448  26.8896235
  43.3720133  41.7294381  28.1304994  42.8254622  42.4153575  27.4832767
  43.2204157  42.0144562  29.1715973  44.8690133  41.7934381  27.7954994
  45.3746399  41.0441636  28.4046205  44.9812309  41.5399830  26.7413328
  45.4900133  43.1684381  28.0584994  45.1826604  43.8524260  27.2674272
  45.1324137  43.5401411  29.0187382  46.9680133  43.0764381  28.0844994
  47.2996051  42.7324364  27.1946626  47.3592336  43.9911272  28.2588278
  47.2530378  42.4430159  28.8177364  40.9860133  38.6954381  28.2684994
  41.6750133  37.9294381  27.5954994  39.7200133  38.4194381  28.5754994
  39.1723831  39.0831010  29.1044152  39.1280133  37.1464381  28.2564994
  39.3274548  36.9042062  27.2126383  39.7200133  36.0034381  29.1594994
  39.2640772  35.0602452  28.8584866  40.7954982  35.9574862  28.9882666
  39.4690133  36.2134381  30.6694994  38.8460133  37.1704381  31.1354994
  39.9980133  35.2404381  31.4694994  39.8823610  35.2964352  32.4712921
  40.5023689  34.4694889  31.0555385  37.6450133  37.2484381  28.3724994
  37.1250133  38.3394381  28.5704994  36.9490133  36.1164381  28.1964994
  37.5005840  35.3808162  27.7784926  35.5060133  35.9214381  28.3084994
  35.1931280  35.0548187  27.7261140  34.9860133  35.7854381  29.7484994
  33.8988591  35.7076570  29.7605888  35.6020133  34.4904381  30.3304994
  36.6892153  34.5676650  30.3191666  35.2587058  34.3531227  31.3558701
  35.2925844  33.6371651  29.7269448  35.2650133  37.0214381  30.6474994
  36.3398370  37.2001285  30.6170933  34.7439044  37.8660759  30.1967978
  34.8160133  36.8624381  32.1004994  35.3370778  36.0182194  32.5520372
  35.0492925  37.7714242  32.6549580  33.7411448  36.6841643  32.1317414
  34.7420133  36.9104381  27.4564994  33.7480133  37.4934381  27.8884994
  35.2820133  37.1204381  26.2374994  35.4860133  35.9834381  25.3274994
  34.8929887  35.1417695  25.6852927  36.5421842  35.7142597  25.3395434
  35.0240133  36.4884381  23.9464994  34.3269201  35.7823848  23.4952247
  35.8792705  36.6268906  23.2850863  34.3430133  37.8324381  24.2514994
  33.2845735  37.8185251  24.5115198  34.4974745  38.4878957  23.3944016
  35.1610133  38.3264381  25.4374994  36.1646398  38.5163443  25.0570157
  34.6360133  39.5664381  26.1044994  33.5370133  40.0124381  25.7754994
  35.4390133  40.1404381  27.0064994  36.2258504  39.5918717  27.3228248
  35.2620133  41.4654381  27.5564994  34.3087389  41.5290710  28.0812068
  36.4030133  41.7764381  28.5614994  37.3733880  41.5275838  28.1319137
  36.3907900  42.8289123  28.8447811  36.2820133  40.8354381  30.1124994
  37.3720627  41.3512250  30.6734401  35.2910133  42.4414381  26.4064994
  34.4090133  43.2844381  26.2704994  36.2470133  42.2444381  25.4994994
  37.0061576  41.6273943  25.7506097  36.2970133  42.9004381  24.2244994
  35.2887398  43.0173152  23.8272296  36.9370133  44.3004381  24.3674994
  36.5342253  44.7760278  23.4732536  36.5114712  44.7730320  25.2527502
  38.4800133  44.4604381  24.3874994  38.8715045  44.4866097  23.3705675
  38.8050133  45.7854381  25.0954994  38.4142130  45.7598369  26.1127105
  39.8854274  45.9265580  25.1253543  38.3462007  46.6108829  24.5512272
  39.3540133  43.3314381  24.9794994  39.1870227  42.4108284  24.4203112
  40.4052259  43.6115320  24.9116699  39.0870236  43.1746356  26.0245967
  37.0780133  41.9334381  23.3534994  37.5480133  40.9234381  23.8824994
  37.2450133  42.1294381  22.0364994  36.2460133  42.8104381  21.2174994
  36.5574739  43.8437013  21.0643339  35.2887595  42.7934861  21.7385336
  36.2160133  42.0064381  19.9154994  35.9196258  42.6297395  19.0718473
  35.5403709  41.1545456  19.9922325  37.6630133  41.5434381  19.7844994
  38.3374328  42.3023171  19.3878133  37.7267180  40.6448909  19.1707777
  38.0420133  41.2154381  21.2324994  37.7134691  40.2113113  21.5006160
  39.5430133  41.3164381  21.4014994  40.1920133  40.2714381  21.4254994
  40.1120133  42.5224381  21.4544994  39.5303424  43.3428476  21.5477006
  41.5470133  42.7044381  21.3614994  42.0602669  41.8516377  21.8057982
  41.9760133  42.8214381  19.8714994  41.6220117  41.9311546  19.3517135
  41.4905036  43.7030418  19.4529840  43.3880133  42.9354381  19.7104994
  43.5990340  43.0044818  18.7765277  41.8680133  43.9594381  22.1274994
  41.0200133  44.8254381  22.3114994  43.1060133  44.0724381  22.6064994
  43.8183239  43.4523639  22.2484199  43.4690133  45.0014381  23.6544994
  42.6050468  45.2314904  24.2779871  44.5690133  44.3534381  24.5474994
  44.9244462  45.0752201  25.2828887  44.1652613  43.4809721  25.0611992
  46.0510133  43.7724381  23.6504994  46.6930889  43.3175738  24.7227567
  43.9570133  46.3484381  23.1704994  44.3500133  47.1834381  23.9844994
  43.9270133  46.5904381  21.8584994  43.5701620  45.8882049  21.2263403
  44.4240133  47.8314381  21.2974994  44.6234330  48.5491163  22.0932814
  45.7440133  47.5694381  20.5234994  45.5458163  46.7674360  19.8124370
  45.9854405  48.4836438  19.9812441  46.9330133  47.1764381  21.4224994
  46.6324100  46.3036020  22.0020644  47.7644114  46.9098891  20.7699422
  47.3710133  48.2994381  22.3774994  47.6659194  49.1840346  21.8130366
  46.5592912  48.5570956  23.0578076  48.5450133  47.8314381  23.1854994
  49.4667854  47.9962474  22.8069846  48.4400133  47.2024381  24.3804994
  47.2490133  46.9374381  24.9494994  46.3970060  47.2109714  24.4811373
  47.2129200  46.4663025  25.8421517  49.5680133  46.8334381  25.0234994
  50.4684273  47.0289062  24.6098003  49.5065212  46.3635343  25.9154119
  43.4460133  48.4944381  20.3624994  43.6450133  49.6444381  19.9764994
  42.3730133  47.7954381  19.9934994  42.2345624  46.8638058  20.3581802
  41.3920133  48.3234381  19.0694994  41.5297980  49.3973370  18.9435800
  41.5620133  47.6354381  17.6864994  40.8122018  48.0687557  17.0245948
  42.5574791  47.8944314  17.3258468  41.4050133  46.0964381  17.7054994
  42.1209424  45.6933061  18.4217612  40.3921574  45.8677403  18.0370403
  41.6470133  45.4644381  16.3314994  41.9280133  46.2074381  15.3544994
  41.5510133  44.2104381  16.2554994  40.0040133  48.0854381  19.5674994
  39.0750133  48.7684381  19.1384994  39.8490133  47.1404381  20.5004994
  40.6706868  46.5877842  20.6993103  38.6020133  46.7704381  21.1374994
  38.7530106  45.8856653  21.7559460  38.0820133  47.9304381  22.0444994
  37.4986931  48.5050669  21.3250284  37.4192566  47.5298530  22.8115620
  39.1460133  48.8574381  22.7094994  39.5939516  49.4943237  21.9467223
  38.4840133  49.7324381  23.7814994  38.0362223  49.0962205  24.5449188
  39.2345476  50.3761799  24.2401883  37.7101981  50.3475523  23.3222121
  40.3980133  48.1674381  23.2944994  40.9236967  47.6348522  22.5019663
  41.0588439  48.9186781  23.7269837  40.0962655  47.4611727  24.0679569
  37.6140133  46.3224381  20.0714994  37.9990133  45.5894381  19.1624994
  36.3600133  46.7644381  20.1834994  36.0949145  47.0184432  21.1244050
  35.3360133  46.7684381  19.1554994  35.5792111  47.5580578  18.4445461
  35.2000133  45.4244381  18.3794994  36.1051634  45.3069801  17.7836754
  35.1500073  44.6298032  19.1239152  33.9630133  45.3444381  17.4574994
  33.0851965  45.2984042  18.1020298  33.9373894  46.2652528  16.8747940
  33.9640133  44.1364381  16.5064994  33.1541907  44.2207440  15.7818072
  34.9159530  44.0659837  15.9802423  33.7640133  42.8854381  17.3064994
  33.5085023  42.9741410  18.2796105  33.9100133  41.6434381  16.7874994
  34.2660133  41.4504381  15.5024994  34.4305974  42.2459372  14.9023384
  34.3666875  40.5111328  15.1451901  33.6930133  40.5704381  17.5764994
  33.4252408  40.7027924  18.5413208  33.7993524  39.6398366  17.1986479
  34.0170133  47.2364381  19.7274994  33.4660133  48.1824381  19.1674994
  33.4400133  46.6784381  20.8084994  33.8090133  45.3914381  21.4134994
  34.8346448  45.4680678  21.7744818  33.7526829  44.6247467  20.6407703
  32.8070133  45.1564381  22.5404994  33.1724753  45.5436098  23.4916222
  32.5638887  44.0993922  22.6484152  31.5970133  45.9464381  22.0444994
  31.0799897  46.2376848  22.9588083  30.8932285  45.4603986  21.3688130
  32.2030133  47.1904381  21.3664994  31.6022095  47.6596635  20.5874227
  32.5570133  48.2154381  22.4124994  33.7370133  48.5184381  22.5784994
  31.5340133  48.6994381  23.1224994  30.6638166  48.3620754  22.7364380
  31.4800133  49.5784381  24.2804994  31.5437937  50.6266841  23.9885892
  30.1100133  49.3384381  24.9734994  29.3436547  49.3888727  24.2000331
  30.0860394  48.3557303  25.4444673  29.8030133  50.3994381  26.0374994
  29.9900133  51.5974381  25.8064994  29.3640133  49.9274381  27.2374994
  29.1441324  50.5743679  27.9812964  29.2603596  48.9326541  27.3780755
  32.5470133  49.4084381  25.3464994  32.7730133  50.2814381  26.1824994
  33.1830133  48.2494381  25.3624994  33.0830759  47.6474312  24.5577015
  33.9830133  47.7994381  26.4434994  33.6415010  48.2216834  27.3885800
  33.8560133  46.2854381  26.5134994  32.8168690  45.9760492  26.4014425
  34.4650662  45.7924709  25.7557804  34.3070133  45.7764381  27.8094994
  35.5970133  45.4274381  28.0904994  36.3860850  45.4511209  27.4604956
  35.6250133  45.0404381  29.3794994  36.5814738  44.7281761  29.7987546
  34.4300133  45.1154381  29.9204994  33.5890133  45.5674381  28.9334994
  32.5268921  45.6986594  29.1403342  35.4230133  48.1914381  26.2444994
  35.9820133  48.0064381  25.1664994  36.0360133  48.7234381  27.3014994
  35.4693533  48.8911329  28.1205685  37.4310133  49.0854381  27.3494994
  37.9965973  48.4647748  26.6545238  37.6250133  50.5884381  26.9504994
  38.6521171  50.7009977  26.6033865  36.9397140  50.9105217  26.1664542
  37.4490133  51.5544381  28.1034994  38.5640133  52.2574381  28.5864994
  39.5225224  52.1594472  28.0768348  38.4520133  53.0764381  29.7094994
  39.3285555  53.6077840  30.0802366  37.2240133  53.2174381  30.3584994
  37.1346230  53.8722344  31.2253045  36.1060133  52.5154381  29.8934994
  35.1547171  52.5942633  30.4197333  36.2100133  51.7114381  28.7514994
  35.3284249  51.2035360  28.3604275  37.7930133  48.8074381  28.7804994
  36.9110133  48.6244381  29.6134994  39.0880133  48.7574381  29.0944994
  39.8051808  48.7253104  28.3840502  39.4800133  48.5754381  30.4704994
  38.9613451  49.3153976  31.0800422  39.1440133  47.1664381  31.0114994
  39.4130812  46.9110895  32.0364379  38.0604568  47.2540452  30.9319365
  39.5470133  45.9894381  30.1524994  40.5510133  45.0964381  30.5784994
  41.2592435  45.4115403  31.3448026  40.6430133  43.8114381  30.0244994
  41.4131987  43.1221391  30.3705951  39.7460133  43.4144381  29.0274994
  39.7863026  42.4008150  28.6286948  38.8010133  44.3154381  28.5444994
  38.1208697  44.0200968  27.7455761  38.7260133  45.5964381  29.0844994
  38.0183599  46.3188077  28.6776719  40.9040133  48.9264381  30.7364994
  41.5970133  49.4354381  29.8714994  41.3510133  48.7224381  31.9764994
  40.6889086  48.6958912  32.7387407  42.7430133  48.5044381  32.2734994
  43.2877283  48.5200373  31.3294965  43.3820133  49.5574381  33.2364994
  42.7194544  49.7757494  34.0740285  44.3293208  49.1725193  33.6140522
  43.6880133  50.8834381  32.5684994  42.7520133  51.6074381  31.8074994
  41.7282948  51.2391805  31.7405171  43.1170133  52.7814381  31.1434994
  42.3989858  53.2814508  30.4934806  44.3970133  53.3144381  31.3104994
  44.6762245  54.2447780  30.8159202  45.3220133  52.6474381  32.1174994
  46.3162490  53.0681672  32.2677744  44.9730133  51.4404381  32.7324994
  45.6997702  50.9138242  33.3510479  42.7350133  47.1614381  32.9474994
  41.8730133  46.8814381  33.7784994  43.6610133  46.2854381  32.5584994
  44.3342592  46.5813631  31.8662078  43.6650133  44.8974381  32.9704994
  42.7071516  44.4981681  33.3039416  44.2170133  43.9884381  31.8664994
  43.7330347  44.2554127  30.9270376  45.7370133  44.1364381  31.7184994
  46.2217486  43.8691722  32.6574891  46.0914329  43.4766375  30.9265711
  45.9792072  45.1687963  31.4661499  43.7790133  42.5194381  32.0134994
  42.6913613  42.4585573  31.9759689  44.2036451  41.9300840  31.2008191
  44.1315651  42.1284056  32.9679111  44.3970133  44.7734381  34.2954994
  44.8990133  45.7554381  34.8344994  44.4190133  43.5684381  34.8634994
  43.8696140  42.8493183  34.4150281  45.1190133  43.2354381  36.0804994
  45.8333789  44.0170497  36.3390808  44.0840133  43.1064381  37.2344994
  43.6529444  44.1075390  37.2257976  43.3311105  42.3844607  36.9182938
  44.5600133  42.7614381  38.6694994  44.7778842  41.6937906  38.6971059
  45.8070133  43.5494381  39.0984994  45.5897582  44.6172277  39.0715867
  46.0884711  43.2618726  40.1115090  46.6288543  43.3291197  38.4172230
  43.4090133  42.9634381  39.6764994  42.5755038  42.3128763  39.4116774
  43.7562973  42.7178567  40.6800854  43.0807925  44.0025160  39.6502866
  45.8860133  41.9484381  35.8334994  46.0040133  41.0874381  36.7034994
  46.4370133  41.7854381  34.6244994  46.2435271  42.4843099  33.9214769
  47.3150133  40.6774381  34.2734994  46.7855710  39.7330809  34.3999097
  47.7770133  40.7944381  32.7904994  48.1309482  41.8206945  32.6923818
  48.5921618  40.1065015  32.5660526  46.6240133  40.5564381  31.8104994
  45.6190133  39.9024381  32.1924994  46.7870133  40.9644381  30.6264994
  48.5600133  40.6884381  35.1374994  49.1290133  41.7494381  35.3934994
  48.9820133  39.5134381  35.6154994  48.5464630  38.6540972  35.3123021
  50.0460133  39.4354381  36.5894994  50.6141263  40.3655933  36.6020732
  49.4460133  39.2024381  37.9994994  48.6022491  39.8859908  38.0939281
  49.0838099  38.1745103  38.0160290  50.4220133  39.4234381  39.1774994
  49.9125427  39.2266239  40.1207940  51.2429103  38.7170138  39.0542312
  51.0000133  40.8444381  39.2194994  50.2720133  41.8384381  39.1144994
  52.3490133  40.9314381  39.4124994  52.7932534  41.8377091  39.4502480
  52.8965252  40.0891278  39.5166416  50.9710133  38.3014381  36.2084994
  50.4840133  37.1794381  36.0744994  52.2880133  38.5244381  36.0124994
  52.8590133  39.8584381  35.7974994  52.9566036  40.3489582  36.7659861
  52.1728381  40.4273794  35.1701492  54.2120133  39.6224381  35.1184994
  54.9452570  40.3679663  35.4261364  54.1171426  39.6333413  34.0326900
  54.5890133  38.2304381  35.6184994  55.0257917  38.1980083  36.6166336
  55.2692374  37.7588061  34.9093040  53.2460133  37.5024381  35.6154994
  53.0030242  37.2438513  34.5848746  53.2660133  36.2434381  36.4604994
  53.5800133  36.3844381  37.6414994  53.0070133  35.0284381  35.9404994
  52.4200133  34.8004381  34.6154994  53.0334228  35.3187426  33.8784855
  51.4148671  35.2220633  34.6120140  52.4170133  33.2854381  34.4154994
  53.2916728  32.9739649  33.8444878  51.5127262  32.9712420  33.8943018
  52.4500133  32.7244381  35.8384994  53.0427402  31.8103381  35.8039286
  51.4755554  32.5086367  36.2766330  53.1770133  33.7864381  36.6754994
  52.7363325  33.8827255  37.6677833  54.6450133  33.4914381  36.8064994
  55.0420133  32.9224381  37.8194994  55.4430133  33.8374381  35.7934994
  54.9950618  34.2464478  34.9859415  56.8690133  33.6234381  35.7494994
  57.0377284  32.5516683  35.8541134  57.4630133  34.0864381  34.4054994
  57.3099128  35.1594777  34.2904072  58.5307129  33.8680340  34.3850641
  56.9692685  33.5598433  33.5887906  57.5920133  34.3224381  36.8704994
  58.4760133  33.7384381  37.4904994  57.2060133  35.5694381  37.1624994
  56.5269807  36.0053331  36.5550379  57.7570133  36.3514381  38.2484994
  58.8452036  36.3577780  38.1860418  57.2500133  37.8074381  38.1714994
  57.4759950  38.1673365  37.1677541  56.1693743  37.7727475  38.3097596
  57.8700133  38.7614381  39.2104994  57.4650144  39.7542017  39.0142926
  57.5398461  38.4224624  40.1924297  59.4060133  38.8194381  39.1784994
  59.8318979  37.8252539  39.3138478  59.7560529  39.2387513  38.2352348
  59.8740133  39.6984381  40.2974994  59.1853782  40.0675107  40.9375513
  61.1730133  40.0244381  40.4884994  62.1400133  39.6004381  39.6504994
  61.8991915  39.0242007  38.8567391  63.1009822  39.8609109  39.8201825
  61.5110133  40.7894381  41.5464994  60.7954252  41.1102027  42.1830084
  62.4781976  41.0381185  41.6975338  57.4550133  35.7744381  39.6144994
  58.3200133  35.7714381  40.4884994  56.2320133  35.2634381  39.8144994
  55.5387732  35.3472839  39.0847821  55.8610133  34.5784381  41.0424994
  56.0167232  35.2502064  41.8866445  54.3710133  34.1324381  41.0304994
  54.2984684  33.4156057  40.2125826  54.2241379  33.6163925  41.9793011
  53.2850133  35.2174381  40.8614994  53.0976520  35.3140626  39.7920789
  52.3741326  34.8875545  41.3610745  53.6780133  36.5924381  41.4164994
  54.1140133  36.7284381  42.5644994  53.4870133  37.6474381  40.5704994
  53.7246428  38.5817467  40.8716656  53.1089900  37.4886147  39.6474746
  56.6820133  33.3314381  41.2584994  57.0990133  33.0374381  42.3724994
  56.9270133  32.5804381  40.1834994  56.5125584  32.8652969  39.3076102
  57.6490133  31.3324381  40.2244994  57.3697432  30.7632053  41.1111118
  57.3040133  30.4934381  38.9684994  57.4594625  31.1748425  38.1320649
  57.9830560  29.6457280  38.8769093  55.8360133  29.9844381  38.9554994
  55.1926592  30.7949596  39.2979188  55.3910133  29.5344381  37.5544994
  56.0336567  28.7235665  37.2115772  54.3586695  29.1869529  37.5947631
  55.4647474  30.3732778  36.8623929  55.6120133  28.8444381  39.9574994
  55.8408360  29.1945284  40.9640660  54.5721703  28.5205479  39.9136475
  56.2636633  28.0071543  39.7076850  59.1460133  31.5334381  40.3894994
  59.8260133  30.6824381  40.9594994  59.6750133  32.6754381  39.9344994
  59.0936372  33.2628494  39.3539402  61.0250133  33.1264381  40.2394994
  61.7386897  32.3431951  39.9839693  61.3800133  34.4084381  39.4264994
  60.5909465  35.1505062  39.5481859  62.3196254  34.8129228  39.8028255
  61.5410133  34.1044381  37.9304994  61.7740133  32.9634381  37.5214994
  61.3980133  35.1704381  37.0874994  61.4920149  35.0381716  36.0906197
  61.1989602  36.0858059  37.4650977  61.1810133  33.4764381  41.7054994
  62.1790133  33.1364381  42.3304994  60.1910133  34.1714381  42.2734994
  59.4471543  34.4856210  41.6668182  60.1430133  34.5494381  43.6724994
  61.0525101  35.0814024  43.9516567  58.9290133  35.4824381  43.9154994
  59.1767856  36.3567231  43.3135577  58.0331272  35.0081431  43.5148344
  58.6710133  35.9194381  45.3774994  58.5503490  35.0193717  45.9803440
  59.8190133  36.7714381  45.9514994  59.9399840  37.6719681  45.3494109
  59.5862808  37.0506080  46.9791183  60.7441888  36.1954204  45.9326745
  57.3320133  36.6674381  45.4654994  56.5262148  36.0108816  45.1372894
  57.1534015  36.9737385  46.4962172  57.3650460  37.5491577  44.8255163
  60.0720133  33.3474381  44.5864994  60.7590133  33.2894381  45.6034994
  59.2620133  32.3554381  44.2104994  58.6887541  32.5514121  43.4023736
  59.1000133  31.0764381  44.8744994  58.8273387  31.1758080  45.9251532
  58.0300133  30.2464381  44.1434994  58.1183480  30.4741900  43.0812252
  58.1580133  28.7194381  44.3554994  58.0693096  28.4908488  45.4175631
  57.3667425  28.2083625  43.8070534  59.1283068  28.3816287  43.9914738
  56.6300133  30.7384381  44.5704994  56.4574537  30.3562722  45.5766173
  56.6761267  31.8270925  44.5988623  55.4870133  30.3014381  43.6574994
  55.4399752  29.2128266  43.6289960  54.5452325  30.6954093  44.0395134
  55.6586496  30.6836453  42.6512398  60.4110133  30.3244381  44.9334994
  60.7820133  29.7904381  45.9764994  61.1370133  30.3094381  43.8134994
  60.6977940  30.7114914  42.9976938  62.4440133  29.7164381  43.6644994
  62.4246924  28.6691981  43.9661852  62.8700133  29.7954381  42.1744994
  62.2044250  29.1216163  41.6350037  62.6793041  30.8217890  41.8609174
  64.3350133  29.4274381  41.8644994  65.0056792  30.1831799  42.2733544
  64.5742542  28.4568097  42.2989491  64.5490133  29.3514381  40.3454994
  63.6640133  29.6854381  39.5494994  65.7720133  28.8964381  39.9434994
  65.9805094  28.8211600  38.9581243  66.4627009  28.6371895  40.6333126
  63.5070133  30.3414381  44.5384994  64.3190133  29.6434381  45.1414994
  63.5120133  31.6744381  44.6304994  62.8889813  32.1906531  44.0259728
  64.3990133  32.4194381  45.4994994  65.4316226  32.1356767  45.2962836
  64.2500133  33.9474381  45.2694994  63.1827247  34.1687168  45.2640335
  64.7197738  34.4469598  46.1167910  64.8850133  34.4514381  43.9604994
  65.8771715  34.0060512  43.8873315  64.2649661  34.0931122  43.1387658
  65.0040133  35.9844381  43.8824994  65.5963030  36.3531748  44.7199510
  65.4817515  36.2718005  42.9458626  63.6420133  36.6154381  43.9414994
  63.2549593  36.7944927  44.8570473  62.9110133  36.9544381  42.8534994
  63.3240133  36.6824381  41.6014994  64.2051108  36.2109783  41.4548943
  62.7509164  36.9510524  40.8144124  61.7300133  37.5854381  43.0284994
  61.4070017  37.7961946  43.9619582  61.1750595  37.8437703  42.2251381
  64.2050133  32.1364381  46.9724994  65.1740133  32.0564381  47.7264994
  62.9490133  31.9854381  47.3974994  62.2051137  31.9693587  46.7145250
  62.5990133  31.8644381  48.7954994  63.3640754  32.3348792  49.4131274
  61.2420133  32.5644381  49.0684994  60.5686309  32.0910274  48.3539802
  60.9048936  32.3490039  50.0824217  61.2430133  34.0974381  48.8394994
  61.5737096  34.3043839  47.8217007  59.8300133  34.6724381  49.0464994
  59.4987987  34.4662743  50.0642873  59.8479098  35.7498049  48.8819967
  59.1414687  34.2089272  48.3399837  62.2660133  34.8334381  49.7254994
  63.2681864  34.4642296  49.5077064  62.2211345  35.9032010  49.5213076
  62.0335732  34.6543808  50.7752656  62.4950133  30.4164381  49.2244994
  62.2170133  30.1284381  50.3864994  62.7650133  29.4824381  48.3144994
  62.9201116  29.7552327  47.3544854  62.8880133  28.0854381  48.6574994
  63.4446463  27.9863024  49.5893959  61.4950133  27.4344381  48.8414994
  60.9402007  28.0215835  49.5733070  60.9767371  27.4656809  47.8831082
  61.5870133  26.0844381  49.2874994  60.7046524  25.7199171  49.3883141
  63.5830133  27.4604381  47.4704994  62.9560133  27.3474381  46.4194994
  64.8610133  27.0524381  47.5344994  65.7250133  27.2004381  48.7064994
  65.2248399  26.7567723  49.5673638  65.8873358  28.2627366  48.8889064
  67.0160133  26.4684381  48.3354994  66.9693630  25.4183359  48.6239578
  67.8812999  26.9357386  48.8056172  67.0680133  26.6284381  46.8134994
  67.6145639  25.7900357  46.3816859  67.5209220  27.5641640  46.4857947
  65.5960133  26.5754381  46.3724994  65.3994525  27.2521600  45.5409289
  65.1870133  25.1714381  45.9864994  65.4950133  24.7694381  44.8654994
  64.5270133  24.4244381  46.8744994  64.4410021  24.7601446  47.8231841
  63.9020133  23.1674381  46.5334994  64.2515224  22.8368486  45.5554129
  64.2540133  22.0784381  47.5794994  63.8657632  22.4952588  48.5088118
  63.7333329  21.1478119  47.3538297  65.7700133  21.7974381  47.7334994
  66.2780801  22.7309576  47.9753884  66.0250133  20.7694381  48.8524994
  65.5176062  19.8354404  48.6110762  67.0959887  20.5877607  48.9425325
  65.6420976  21.1568314  49.7966404  66.4270133  21.3474381  46.4134994
  66.3064598  22.1281114  45.6624232  67.4886536  21.1643901  46.5793750
  65.9511220  20.4311857  46.0640597  62.4240133  23.4754381  46.5694994
  61.8270133  23.6034381  47.6354994  61.8320133  23.6534381  45.3894994
  62.3976766  23.4968908  44.5675400  60.4680133  24.0974381  45.2084994
  59.9115110  23.9629101  46.1360265  60.4270133  25.6174381  44.8144994
  59.4043615  25.9806872  44.7128508  60.9389883  26.1871186  45.5900287
  61.1360133  25.9344381  43.4994994  60.4010133  26.3764381  42.3824994
  59.3206675  26.4907751  42.4712679  61.0380133  26.6674381  41.1714994
  60.4550509  27.0320688  40.3257453  62.4200133  26.4914381  41.0444994
  62.9115759  26.6717435  40.0884889  63.1710133  26.0824381  42.1504994
  64.2496687  25.9520748  42.0632740  62.5340133  25.8404381  43.3714994
  63.1220553  25.5726564  44.2493374  59.8420133  23.2264381  44.1474994
  59.0310133  23.6904381  43.3464994  60.2220133  21.9474381  44.1254994
  60.8094655  21.6635552  44.8964791  59.9130133  20.9704381  43.1014994
  60.3202022  21.2898827  42.1422020  60.5390133  19.6064381  43.4744994
  60.1160430  19.2969891  44.4302382  60.2567211  18.8893904  42.7036208
  62.0730133  19.6614381  43.5864994  62.4625679  20.0339349  42.6390850
  62.3234891  20.3625932  44.3825807  62.6990133  18.2924381  43.8944994
  62.2764563  17.9340740  44.8331792  62.4257147  17.6100639  43.0896561
  64.2280133  18.3564381  44.0134994  64.6358478  18.7198157  43.0702453
  64.4863784  19.0516298  44.8122829  64.7980133  17.0224381  44.3164994
  64.5590849  16.3782147  43.5762365  65.8028411  17.0942709  44.3890340
  64.4205582  16.6857312  45.1907163  58.4300133  20.7904381  42.8784994
  57.9870133  20.6064381  41.7474994  57.6480133  20.8574381  43.9564994
  58.0779816  21.0221713  44.8554374  56.2160133  20.7144381  43.9004994
  55.9092451  20.4715636  42.8831477  55.7450133  19.5784381  44.8444994
  55.9633153  19.8585534  45.8750230  54.6736239  19.4117110  44.7330236
  56.4810133  18.2694381  44.5254994  56.2390133  17.6534381  43.4824994
  57.3830133  17.8354381  45.4554994  57.8955731  16.9798051  45.2965194
  57.5331840  18.3721978  46.2977812  55.5860133  22.0034381  44.3364994
  55.9930133  22.6174381  45.3164994  54.5790133  22.4494381  43.5954994
  54.3800673  21.9421298  42.7451124  53.8220133  23.6424381  43.8714994
  54.0348102  24.0122367  44.8745277  54.0800133  24.7514381  42.8554994
  53.9129749  24.3548751  41.8540323  53.1370133  25.9544381  43.0974994
  53.3038084  26.3518573  44.0986677  53.3412176  26.7308868  42.3602554
  52.1008923  25.6290769  43.0042655  55.5810133  25.1444381  42.9454994
  55.7693671  25.4460404  43.9758681  56.1583803  24.2482190  42.7184788
  55.9970133  26.2694381  42.0024994  55.4203617  27.1661898  42.2292350
  57.0589163  26.4785987  42.1317788  55.8093726  25.9683690  40.9718451
  52.4030133  23.1354381  43.9164994  52.0470133  22.1824381  43.2344994
  51.5840133  23.7094381  44.7924994  51.9876032  24.4045595  45.4040717
  50.1840133  23.4134381  44.9274994  49.8577719  22.6151530  44.2608610
  49.9039830  23.1678271  45.9518810  49.5100133  24.6814381  44.5314994
  50.0870133  25.7594381  44.6354994  48.2770133  24.6024381  44.0474994
  47.8180175  23.7069635  43.9606229  47.5590133  25.7784381  43.6394994
  47.9617104  26.6302816  44.1874929  47.6380133  26.0814381  42.1314994
  47.0745964  25.3270527  41.5823517  47.0440133  27.4754381  41.8454994
  47.6072393  28.2304534  42.3939785  47.1028315  27.6838177  40.7772210
  46.0014956  27.4988075  42.1628514  49.0980133  26.0524381  41.6264994
  49.5246829  25.0651496  41.8034645  49.1180592  26.2702631  40.5586745
  49.6827030  26.8014138  42.1606100  46.1420133  25.4814381  44.0284994
  45.5970133  24.4314381  43.6874994  45.5160133  26.4174381  44.7404994
  46.0645363  27.1856911  45.0996779  44.0920133  26.4264381  44.9724994
  43.6810620  25.4238328  44.8541742  43.6890133  26.9824381  46.3304994
  44.0336088  28.0132856  46.4123996  42.1490133  26.9394381  46.4864994
  41.8036989  25.9087857  46.4051708  41.8707598  27.3394340  47.4615271
  41.6870058  27.5397813  45.7027672  44.4050133  26.2184381  47.4654994
  45.4712663  26.4174561  47.3578095  44.0500518  26.6415621  48.4052163
  44.1660133  24.7074381  47.4644994  44.5211708  24.2835091  46.5252192
  44.7063775  24.2530432  48.2949397  43.0999552  24.5076152  47.5726237
  43.6260133  27.3644381  43.9024994  44.2060133  28.4304381  43.7004994
  42.6060133  26.9514381  43.1644994  42.0801955  26.1520773  43.4879765
  42.2000133  27.5824381  41.9474994  42.7520835  28.5120087  41.8088770
  42.4430133  26.6804381  40.7274994  41.5795528  26.0330286  40.5745414
  42.6540133  27.5544381  39.4824994  43.5176435  28.2018399  39.6345347
  42.8266476  26.9169161  38.6153987  41.7677217  28.1657801  39.3126476
  43.6800133  25.7714381  40.9294994  43.5262477  25.1363021  41.8018872
  43.8211455  25.1476080  40.0468798  44.5647291  26.3895630  41.0821441
  40.7280133  27.8104381  42.1714994  40.1060133  27.1564381  43.0064994
  40.1520133  28.7534381  41.4334994  40.7600792  29.4044409  40.9575262
  38.7240133  28.9354381  41.3114994  38.1974338  28.1923531  41.9103633
  38.2310133  30.3284381  41.7154994  38.4266734  30.4598203  42.7797156
  38.9290133  31.4514381  40.9224994  38.7334090  31.3209821  39.8581593
  38.5444222  32.4186031  41.2461978  40.0033707  31.4097738  41.1017225
  36.8210133  30.4594381  41.5584994  36.5505388  31.3424685  41.8206085
  38.4930133  28.6224381  39.8544994  39.4110133  28.6864381  39.0384994
  37.2670133  28.2494381  39.4924994  36.5180376  28.3313666  40.1651229
  36.9610133  27.7004381  38.1874994  37.6584382  26.8998332  37.9410654
  35.5260133  27.1214381  38.1944994  34.7703471  27.8861244  38.3742840
  35.3369140  26.6433802  37.2333531  35.3280133  26.0644381  39.2474994
  35.9840133  24.8544381  39.2594994  36.6765128  24.5378694  38.5959269
  35.5300133  24.1584381  40.3304994  35.9438453  23.1658824  40.5084751
  34.6230133  24.8494381  40.9934994  34.4860133  26.0514381  40.3184994
  33.7814102  26.8012660  40.6782126  37.0680133  28.7144381  37.0634994
  37.1320133  28.3354381  35.8974994  37.1030133  30.0064381  37.4024994
  37.0788700  30.2369392  38.3855486  37.1720133  31.0894381  36.4454994
  36.8921640  30.7362067  35.4530221  36.1880133  32.2154381  36.8674994
  36.5419787  32.5958647  37.8256660  36.2689014  32.9987679  36.1138738
  34.7110133  31.7794381  37.0004994  34.6062885  31.1363865  37.8743519
  34.0781005  32.6588808  37.1192591  34.2440133  31.0024381  35.7604994
  34.2970133  31.5184381  34.6384994  33.7710133  29.7394381  35.9714994
  33.4513736  29.1859817  35.1894394  33.7428047  29.3640676  36.9087308
  38.5580133  31.6934381  36.3474994  38.7630133  32.6484381  35.5994994
  39.5430133  31.1344381  37.0624994  39.3014180  30.4467127  37.7616166
  40.9220133  31.6054381  37.0034994  40.9442020  32.5835314  36.5229370
  41.5520133  31.7324381  38.4154994  42.5558076  32.1395608  38.2940606
  40.9431466  32.4328110  38.9872152  41.6240133  30.4974381  39.1054994
  42.0202815  30.6358967  39.9688653  41.7310133  30.7704381  36.0384994
  42.9160133  30.5224381  36.2514994  41.0880133  30.3414381  34.9494994
  40.1420130  30.6841627  34.8616216  41.5900133  29.4474381  33.9314994
  41.8468276  28.4845174  34.3730076  40.5080133  29.2214381  32.8454994
  40.3105375  30.1875637  32.3810603  40.9311573  28.5426387  32.1050396
  39.1950133  28.6354381  33.3854994  39.4382657  27.7585482  33.9854939
  38.7241027  29.3882958  34.0175995  38.2270133  28.2334381  32.2594994
  38.0358537  29.1210522  31.6564255  38.7256728  27.4805555  31.6490847
  36.8960133  27.6714381  32.7784994  37.1054650  26.8233161  33.4303580
  36.3866179  28.4492066  33.3474384  36.0300133  27.2314381  31.6584994
  36.5016699  26.5104358  31.1314362  35.1629738  26.8668676  32.0265087
  35.8354606  28.0172737  31.0545867  42.8360133  29.9194381  33.2284994
  43.7370133  29.1294381  32.9634994  42.9120133  31.2154381  32.9254994
  42.2149697  31.8452358  33.2964230  43.9540133  31.7644381  32.0794994
  44.3037206  31.0085392  31.3763487  43.3980133  32.9704381  31.2754994
  42.9905539  33.6662366  32.0089436  44.1950332  33.4593329  30.7152840
  42.2870133  32.5364381  30.3104994  42.1150133  31.3114381  30.0724994
  41.6240133  33.4514381  29.7554994  45.1140133  32.2244381  32.9284994
  46.1100133  32.7204381  32.4094994  45.0270133  32.0064381  34.2434994
  44.1516697  31.6773118  34.6250079  46.1370133  32.1944381  35.1434994
  46.9024372  32.8084135  34.6688842  45.6600133  32.9074381  36.4334994
  45.0390967  33.7464053  36.1193408  45.0501579  32.1906055  36.9833425
  46.7970133  33.4214381  37.3444994  46.3716544  33.8768084  38.2388195
  47.4414244  32.5906114  37.6318383  47.6470133  34.4724381  36.6154994
  47.2290133  35.6294381  36.4954994  48.8520133  34.0604381  36.1244994
  49.4462370  34.7160132  35.6374461  49.1440981  33.1018276  36.2504115
  46.6530133  30.8194381  35.4894994  47.8620133  30.6234381  35.5824994
  45.7490133  29.8424381  35.6394994  44.7764383  30.1113580  35.5961498
  46.0670133  28.4464381  35.8784994  46.6726818  28.3523663  36.7798403
  44.7620133  27.6224381  36.0684994  44.3487734  28.0816290  36.9665393
  44.0731452  27.7684429  35.2364878  44.9650133  26.1014381  36.3114994
  45.5194996  25.6893409  35.4683970  45.7400133  25.8324381  37.6164994
  45.1858817  26.2438687  38.4601591  45.8623229  24.7578470  37.7521286
  46.7206451  26.3051097  37.5613345  43.6340133  25.3224381  36.2574994
  43.1766363  25.4511490  35.2765105  43.8247284  24.2636655  36.4327980
  42.9591906  25.7014735  37.0249923  46.8550133  27.8334381  34.7504994
  47.8300133  27.1244381  34.9834994  46.4440133  28.1064381  33.5094994
  45.6034828  28.6593949  33.4209192  47.0580133  27.5894381  32.3004994
  47.1186687  26.5041334  32.3813322  46.2620133  27.9414381  31.0464994
  46.1784839  29.0266928  30.9886607  46.9390133  27.4084381  29.7644994
  47.0224771  26.3231293  29.8214058  46.3393979  27.6811755  28.8960671
  47.9335794  27.8443556  29.6700813  44.9650133  27.3624381  31.1244994
  44.4669840  27.5855129  30.3346863  48.4860133  28.0544381  32.1714994
  49.3750133  27.2684381  31.8574994  48.7380133  29.3354381  32.4514994
  47.9726195  29.9637780  32.6501462  50.0670133  29.8884381  32.3434994
  50.5905541  29.4300860  31.5045014  50.0010133  31.4114381  32.1104994
  49.2984434  31.8308447  32.8306333  50.9642778  31.9118211  32.2096880
  49.4750133  31.7574381  30.7444994  48.1440133  31.8954381  30.4214994
  47.3569144  31.7604617  31.0398491  48.0790133  32.2474381  29.1154994
  47.0939858  32.3968101  28.6733368  49.2870133  32.3494381  28.5934994
  50.1740133  32.0584381  29.6164994  51.2479402  32.0958151  29.4337831
  50.9530133  29.5324381  33.5124994  52.1660133  29.4424381  33.3564994
  50.3720133  29.2614381  34.6854994  49.4013681  29.5005828  34.8295720
  51.1020133  28.6544381  35.7844994  51.9943064  29.2422159  35.9999745
  50.2280133  28.5954381  37.0614994  49.2266114  28.3684824  36.6957339
  50.5736561  27.7829000  37.7005714  50.1940133  29.9054381  37.8704994
  49.8637095  30.7202188  37.2261916  49.2190133  29.7594381  39.0534994
  49.5489408  28.9450927  39.6985485  49.1973090  30.6880544  39.6238513
  48.2196856  29.5416776  38.6766375  51.6020133  30.2874381  38.3544994
  52.2578245  30.4237706  37.4946014  51.5517970  31.2158974  38.9233077
  51.9962974  29.4939198  38.9892969  51.5690133  27.2584381  35.4734994
  52.7100133  26.9074381  35.7584994  50.6880133  26.4514381  34.8804994
  49.7734335  26.8424676  34.7051741  50.9240133  25.0734381  34.5194994
  51.2611965  24.5055093  35.3866001  49.6090133  24.4504381  34.0024994
  48.8161717  24.7748134  34.6765038  49.4309812  24.8611658  33.0086648
  49.6210133  22.9164381  33.9274994  50.2419951  22.6183090  33.0827500
  50.0541318  22.5304218  34.8502680  48.2040133  22.3454381  33.7484994
  47.5343108  22.9264181  34.3825812  47.9249706  22.4832032  32.7038677
  48.0940133  20.8584381  34.1154994  48.5327340  20.2643358  33.3138341
  48.6435823  20.6822053  35.0401697  46.6750133  20.4664381  34.3014994
  46.1656874  20.6292577  33.4446583  46.6251320  19.4867219  34.5418495
  46.2684182  21.0165314  35.0445854  52.0080133  24.9524381  33.4774994
  52.8750133  24.0864381  33.5754994  51.9900133  25.8434381  32.4804994
  51.1763465  26.4349120  32.3899225  53.0260133  25.9434381  31.4754994
  53.1807955  24.9703974  31.0093090  52.6270133  26.9614381  30.3764994
  52.2672740  27.8618566  30.8744284  53.5233786  27.1974988  29.8029973
  51.5370133  26.4294381  29.4284994  51.8838043  25.4679301  29.0498976
  50.6377480  26.2809980  30.0263200  51.2180133  27.3624381  28.2444994
  52.1217970  27.4297167  27.6389025  50.4280163  26.8842469  27.6654162
  50.7700133  28.7734381  28.6534994  49.9358201  28.6868804  29.3497249
  51.6029600  29.2752930  29.1458820  50.3470133  29.5624381  27.4714994
  49.5749128  29.0978000  27.0153504  50.0580319  30.4837948  27.7676269
  51.1199795  29.6431256  26.8264320  54.3890133  26.2934381  32.0144994
  55.3740133  25.6624381  31.6464994  54.4670133  27.2774381  32.9174994
  53.6361586  27.8073421  33.1388169  55.7390133  27.7394381  33.4444994
  56.5171588  27.6354793  32.6883372  55.7020133  29.1864381  33.9424994
  54.9327660  29.2715634  34.7100361  57.0690133  29.6084381  34.5334994
  57.8387392  29.5240134  33.7663650  57.0129318  30.6406611  34.8791455
  57.3193423  28.9582224  35.3717441  55.2810133  30.1714381  32.8134994
  54.3293946  29.8072561  32.4263377  55.1318963  31.1403057  33.2901115
  56.2800133  30.3184381  31.6584994  56.4292971  29.3499979  31.1810710
  55.8897327  31.0268596  30.9278017  57.2318000  30.6830455  32.0448456
  56.2900133  26.7604381  34.4654994  57.5020133  26.6114381  34.6044994
  55.4130133  26.0194381  35.1484994  54.4360898  26.2715377  35.1019633
  55.7950133  24.9034381  35.9894994  56.5237476  25.2755425  36.7096271
  54.5920133  24.3314381  36.7584994  53.8575495  23.9465771  36.0510074
  54.9268731  23.5236723  37.4092556  54.1378787  25.1181308  37.3609738
  56.4370133  23.7884381  35.2004994  57.4910133  23.2914381  35.5794994
  55.8400133  23.4204381  34.0634994  54.9587103  23.8630890  33.8456360
  56.3440133  22.4084381  33.1554994  56.4699452  21.4903556  33.7294027
  55.3510133  22.1394381  32.0074994  55.2215231  23.0472249  31.4182156
  55.7387137  21.3450792  31.3697043  54.3896641  21.8355333  32.4216840
  57.6830133  22.7814381  32.5574994  58.5820133  21.9464381  32.4704994
  57.8370133  24.0554381  32.1764994  57.0182865  24.6419764  32.2523845
  59.0550133  24.6394381  31.6454994  59.3640519  24.0953157  30.7530168
  58.8310133  26.1314381  31.2654994  58.3563545  26.5940798  32.1308091
  59.7833700  26.6234218  31.0678414  57.9170133  26.2774381  30.0424994
  57.6240133  25.2594381  29.3634994  57.5450133  27.4444381  29.7464994
  60.2010133  24.5564381  32.6344994  61.3440133  24.3094381  32.2544994
  59.9000133  24.7444381  33.9214994  58.9314784  24.9136834  34.1525738
  60.8730133  24.7664381  34.9894994  61.8574320  25.0211566  34.5968957
  60.4700133  25.8274381  36.0384994  59.4268910  25.6544070  36.3031792
  61.0966924  25.6806158  36.9181679  60.6360133  27.2654381  35.5264994
  61.6833545  27.4137589  35.2634818  60.0182353  27.3826163  34.6361502
  60.2210133  28.3034381  36.5764994  59.1492989  28.2000578  36.7463219
  60.7575876  28.0816819  37.4990023  60.5320133  29.7374381  36.1374994
  61.6041148  29.8335179  35.9658377  59.9958982  29.9518270  35.2129903
  60.1140133  30.6924381  37.1804994  60.6109925  30.4942241  38.0371339
  60.3242384  31.6332705  36.8792691  59.1205342  30.6038686  37.3394139
  61.0350133  23.4254381  35.6714994  61.7360133  23.3244381  36.6774994
  60.4190133  22.3774381  35.1154994  59.8074228  22.5977125  34.3424952
  60.4390133  21.0114381  35.6104994  59.7118807  20.4127507  35.0619096
  61.8430133  20.3774381  35.4264994  62.5451007  20.9484342  36.0340650
  61.7934277  19.3530437  35.7956300  62.3180133  20.3724381  33.9624994
  61.5797045  19.8271645  33.3745558  62.3602791  21.4071656  33.6224192
  63.6980133  19.7184381  33.7854994  64.4057968  20.2545657  34.4177246
  63.6233823  18.6839685  34.1207642  64.1860133  19.7504381  32.3304994
  63.4735834  19.2053651  31.7112744  64.2334592  20.7883416  32.0009479
  65.5260133  19.1304381  32.2034994  65.4821707  18.1685625  32.5084140
  65.8226770  19.1645916  31.2386553  66.1864062  19.6356276  32.7768787
  59.9320133  20.8684381  37.0304994  60.5760133  20.2614381  37.8854994
  58.7520133  21.4314381  37.2844994  58.2860541  21.8405985  36.4872735
  58.0700133  21.4404381  38.5524994  58.7013724  20.9730942  39.3081942
  57.7460133  22.8924381  39.0044994  56.9629044  23.1767202  38.3016315
  57.3444071  22.9003098  40.0177864  58.9150133  23.8974381  38.9064994
  59.3277598  23.8641175  37.8982182  58.4260133  25.3244381  39.2134994
  58.0135248  25.3586578  40.2218550  59.2624859  26.0194180  39.1398973
  57.6552863  25.6071002  38.4964343  60.1130133  23.5024381  39.7904994
  60.4858777  22.5255437  39.4826860  60.9049375  24.2435735  39.6824458
  59.7971716  23.4582848  40.8328014  56.7630133  20.7374381  38.3124994
  56.3530133  20.5294381  37.1704994  56.0880133  20.3594381  39.3944994
  56.4961599  20.5626456  40.2957332  54.8040133  19.6984381  39.3574994
  54.5210757  19.5164095  38.3207202  54.8160133  18.3664381  40.1004994
  55.0244576  18.5610546  41.1525335  53.4650133  17.6304381  39.9714994
  53.2560937  17.4350508  38.9197028  53.5119801  16.6859773  40.5136130
  52.6717788  18.2499197  40.3899752  55.8420133  17.5344381  39.5744994
  55.8470998  16.6970795  40.0439727  53.8660133  20.6544381  40.0424994
  54.2310133  21.2754381  41.0354994  52.6500133  20.7984381  39.5114994
  52.4857267  20.3843812  38.6050414  51.5990133  21.5984381  40.1004994
  51.8929007  21.9776209  41.0792485  51.1500133  22.7704381  39.2104994
  51.3836670  22.5091277  38.1784029  49.6380133  23.0854381  39.3334994
  49.4036653  23.3473056  40.3652974  49.3862365  23.9213743  38.6808741
  49.0589030  22.2095583  39.0409844  52.0300133  24.0024381  39.5464994
  51.8669531  24.2286487  40.6002265  53.0664579  23.7001554  39.3964748
  51.7350133  25.2484381  38.7054994  50.6988072  25.5516132  38.8553709
  52.3977245  26.0583943  39.0102684  51.8983100  25.0231189  37.6516183
  50.4840133  20.6384381  40.4434994  50.1380133  19.7684381  39.6454994
  49.9200133  20.7834381  41.6464994  50.3156882  21.4844941  42.2564675
  48.8010133  20.0064381  42.1304994  48.5692140  19.2058446  41.4280620
  49.1520133  19.3734381  43.5074994  50.1222450  18.8803815  43.4471268
  49.1929843  20.1644441  44.2563191  48.1020133  18.3394381  43.9424994
  47.1480133  18.0354381  43.2194994  48.3050133  17.7774381  45.1704994
  47.6542244  17.0893641  45.5213950  49.1050272  18.0523894  45.7222968
  47.6630133  21.0014381  42.2344994  47.8280133  22.0774381  42.7994994
  46.5090133  20.6754381  41.6484994  46.3540701  19.7101274  41.3949894
  45.4390133  21.6254381  41.4214994  45.7647169  22.6275853  41.7002777
  45.0420133  21.6324381  39.9214994  44.6821693  20.6341498  39.6724369
  44.2315856  22.3510983  39.7997034  46.2060133  22.0074381  38.9834994
  46.5320155  23.0140818  39.2452089  47.0238705  21.3064023  39.1501056
  45.7960133  21.9714381  37.5094994  44.6210133  21.6444381  37.1964994
  46.6800133  22.2694381  36.6644994  44.2120133  21.1964381  42.1834994
  43.8390133  20.0244381  42.1694994  43.5610133  22.1464381  42.8564994
  43.9631831  23.0724329  42.8863712  42.3010133  21.9244381  43.5294994
  41.8340902  21.0125266  43.1573443  42.5330133  21.7754381  45.0474994
  43.0973293  22.5991524  45.4846967  41.5556526  21.7110746  45.5257497
  43.2700133  20.5124381  45.4024994  42.6770133  19.4334381  46.0164994
  43.6400133  18.5044381  46.2234994  43.3524285  17.5652322  46.6960311
  44.8090133  18.9324381  45.7914994  45.7031622  18.4632772  45.8135385
  44.5890133  20.1994381  45.2764994  45.4187915  20.7695911  44.8587735
  41.4470133  23.1354381  43.2584994  41.8360133  24.2504381  43.5844994
  40.2810133  22.9394381  42.6354994  39.8589357  22.0218629  42.6331104
  39.5780133  24.0224381  41.9704994  40.2478335  24.8673877  41.8108117
  39.0590133  23.5294381  40.5854994  38.2104308  22.9058418  40.8668083
  38.7050153  24.3876788  40.0143530  40.0450133  22.7004381  39.7164994
  40.3590384  21.8193265  40.2760810  39.3630133  22.2604381  38.4064994
  39.0491035  23.1410788  37.8461144  40.0653104  21.6806059  37.8076052
  38.4915520  21.6479698  38.6378826  41.3640133  23.4324381  39.4134994
  41.8729228  23.6672040  40.3483767  42.0026423  22.7938572  38.8031972
  41.1522108  24.3555549  38.8739681  38.3560133  24.5544381  42.6984994
  37.7100133  25.4784381  42.2074994  37.9970133  23.9744381  43.8484994
  38.5670959  23.2400610  44.2432089  36.7130133  24.2664381  44.4764994
  35.9453603  24.3274174  43.7050789  36.3050133  23.1764381  45.4944994
  37.0248716  23.1773803  46.3129751  35.3146205  23.4151428  45.8821101
  36.2790133  21.8894381  44.8874994  36.0234307  21.2331044  45.5398057
  36.5770133  25.6384381  45.1114994  37.5600133  26.2374381  45.5444994
  35.3350133  26.1364381  45.1354994  34.7001119  25.5288918  44.6376168
  34.8230133  27.4024381  45.6454994  35.1948303  28.2277320  45.0382587
  33.2650133  27.4074381  45.5924994  32.8628372  26.5957974  46.1987939
  32.9053722  28.3612447  45.9785190  32.7600133  27.2394381  44.1484994
  33.4870133  27.4644381  43.1754994  31.4710133  26.8074381  44.0174994
  31.0767519  26.6760906  43.0969531  30.9178093  26.6212472  44.8417561
  35.2750133  27.8484381  47.0234994  35.9200133  27.1034381  47.7534994
  34.9250133  29.0914381  47.3854994  34.2108534  29.5020511  46.8011434
  35.4340133  29.8714381  48.5044994  36.4893694  30.0988776  48.3541863
  34.6480133  31.2094381  48.6154994  33.6823717  31.0008675  49.0760792
  35.2155795  31.8868177  49.2535633  34.4460133  31.8134381  47.3454994
  33.9593715  32.6336706  47.4550350  35.3060133  29.2154381  49.8604994
  36.2510133  29.1944381  50.6424994  34.1440133  28.6364381  50.1634994
  33.4099553  28.6064448  49.4704204  33.8880133  28.0424381  51.4634994
  34.2632369  28.6928512  52.2536065  32.3640133  27.8504381  51.6624994
  32.0101694  27.1910352  50.8699835  32.2175748  27.3675506  52.6286648
  31.5730133  29.1684381  51.6234994  31.9988428  29.8354573  52.3730696
  31.7019562  29.6058053  50.6334561  30.0730133  28.9714381  51.9054994
  29.6775701  28.2963701  51.1465482  29.9770092  28.5090431  52.8878810
  29.2830133  30.2884381  51.8804994  29.6949447  30.9568716  52.6365482
  29.3930544  30.7427396  50.8958166  27.8460133  30.0544381  52.1584994
  27.7437978  29.6338706  53.0710643  27.3511055  30.9345873  52.1360593
  27.4640131  29.4354159  51.4577951  34.5640133  26.6964381  51.5824994
  34.7700133  26.1864381  52.6814994  34.9460133  26.1264381  50.4404994
  34.7818180  26.6562997  49.5964699  35.5950133  24.8474381  50.3274994
  35.4185113  24.2554500  51.2255508  35.0250133  24.0764381  49.1044994
  35.2533892  24.5912998  48.1713000  35.4707547  23.0818713  49.0886398
  33.5020133  23.9294381  49.2234994  32.9820133  23.5784381  50.2884994
  32.7720133  24.2424381  48.1124994  31.7653270  24.1637848  48.1347741
  33.2421045  24.5511671  47.2735707  37.0760133  25.0454381  50.1014994
  37.7990133  24.0834381  49.8624994  37.5640133  26.2904381  50.1924994
  36.8981832  27.0482689  50.2421168  38.9770133  26.6194381  50.0994994
  39.3912707  26.1665072  49.1987533  39.2670133  28.1194381  50.0694994
  38.6245343  28.5937796  50.8113350  40.7420133  28.4614381  50.3724994
  41.3851148  27.9877923  49.6307575  40.8800151  29.5420267  50.3352944
  41.0035814  28.0962512  51.3656370  38.8950133  28.6594381  48.6754994
  37.8364249  28.4809303  48.4867468  39.0953297  29.7300957  48.6346929
  39.4897007  28.1499060  47.9173273  39.7500133  25.9414381  51.1974994
  40.8260133  25.4084381  50.9474994  39.1960133  25.9144381  52.4134994
  38.3256209  26.4067039  52.5555937  39.8000133  25.2484381  53.5464994
  40.7943302  25.6546563  53.7320251  38.9350133  25.4634381  54.8094994
  38.7671000  26.5265030  54.9821182  37.9765686  24.9616270  54.6765732
  39.5420133  24.9084381  56.0814994  40.8930133  24.7414381  56.3074994
  41.6418159  24.9705500  55.6696106  41.0360133  24.2124381  57.5444994
  42.0453935  24.0046053  57.8995434  39.8620133  24.0374381  58.1214994
  38.9140133  24.4644381  57.2054994  37.8537696  24.4081981  57.4521195
  39.9850133  23.7634381  53.3264994  41.0600133  23.2304381  53.5774994
  38.9540133  23.0844381  52.8124994  38.0507871  23.5328074  52.7555196
  39.0420133  21.6734381  52.4934994  39.5063660  21.1439843  53.3254576
  37.6390133  21.0604381  52.2364994  37.7817306  20.0270236  51.9206109
  37.0914268  21.0794653  53.1787769  36.9000133  21.7604381  51.2454994
  36.0448829  21.3403388  51.1277353  40.0170133  21.3584381  51.3774994
  40.7560133  20.3814381  51.4614994  40.0530133  22.1894381  50.3304994
  39.3334791  22.8948126  50.2610972  41.0170133  22.0804381  49.2494994
  41.0140491  21.0615457  48.8622673  40.6740133  23.0504381  48.0924994
  40.5804851  24.0367961  48.5468666  41.5365898  23.0382089  47.4262320
  39.3960133  22.7324381  47.2854994  38.5739936  23.2984068  47.7237502
  39.5515883  23.0564699  46.2564698  39.0180133  21.2414381  47.2794994
  39.7290133  20.4044381  46.7114994  37.8620133  20.9064381  47.9264994
  37.5641344  19.9417810  47.9548942  37.3106108  21.6249788  48.3734399
  42.4450133  22.3024381  49.6674994  43.3510133  21.6194381  49.1984994
  42.6600133  23.2664381  50.5614994  41.8750122  23.8681576  50.7659650
  43.9260133  23.5554381  51.1914994  44.7459949  23.6872935  50.4855649
  43.8040133  24.7964381  52.0644994  42.7748739  24.8368937  52.4213409
  44.7630133  24.8194381  53.2644994  45.7924317  24.7794741  52.9084077
  44.6114095  25.7364445  53.8338992  44.5665773  23.9587368  53.9038002
  43.9640133  26.0684381  51.2144994  43.3339138  25.9449533  50.3336891
  43.5925958  26.9006217  51.8125118  45.4080133  26.3584381  50.7744994
  45.7799804  25.5268432  50.1760094  45.4307999  27.2718921  50.1802085
  46.0386632  26.4825094  51.6548328  44.4190133  22.3794381  51.9864994
  45.5700133  21.9844381  51.8494994  43.5430133  21.7664381  52.7854994
  42.6151196  22.1576841  52.8632113  43.8670133  20.6044381  53.5854994
  44.7290702  20.8204193  54.2166169  42.6680133  20.2164381  54.4974994
  41.7928888  20.1359875  53.8526863  42.8637992  19.2516680  54.9654596
  42.4070133  21.2694381  55.5854994  43.1930133  22.2434381  55.7214994
  41.4060133  21.0784381  56.3264994  44.2550133  19.4324381  52.7084994
  45.2070133  18.7124381  53.0054994  43.5430133  19.2654381  51.5914994
  42.6843217  19.7939364  51.5328692  43.8200133  18.2924381  50.5604994
  43.9260698  17.3027815  51.0048316  42.6640133  18.2514381  49.5314994
  42.4135606  19.2793852  49.2693974  43.0239605  17.7285007  48.6454550
  41.4090133  17.5394381  50.0734994  41.6250419  16.4711964  50.0564050
  41.2855303  17.8681571  51.1053898  40.1110133  17.8134381  49.2884994
  39.3343123  17.1275923  49.6268042  39.7918282  18.8400772  49.4680332
  40.3110133  17.6234381  47.8154994  40.3209791  18.4559922  47.2437883
  40.4790133  16.4224381  47.2114994  40.4710133  15.2654381  47.9014994
  40.3363808  15.2788369  48.9023963  40.5996862  14.3898501  47.4147872
  40.6580133  16.3844381  45.8744994  40.6646113  17.2440736  45.3443266
  40.7845746  15.4965345  45.4100555  45.1750133  18.4314381  49.8804994
  45.8350133  17.4284381  49.6124994  45.6120133  19.6654381  49.5984994
  45.0689178  20.4632733  49.8961664  46.8160133  19.9034381  48.8154994
  47.1031080  19.0562514  48.1926425  46.6720133  21.1474381  47.9184994
  45.6730981  21.1199063  47.4831724  46.8690133  22.4824381  48.6704994
  47.8679407  22.5109040  49.1057405  46.7528756  23.3128925  47.9741102
  46.1254190  22.5667988  49.4629970  47.6250133  21.0574381  46.7074994
  47.3856656  20.1702124  46.1212867  47.5084501  21.9452679  46.0859925
  48.6548185  20.9931890  47.0588884  48.0530133  20.0544381  49.6934994
  49.1780133  19.9224381  49.2134994  47.8690133  20.3304381  50.9904994
  46.9217822  20.3571679  51.3399819  48.9430133  20.7664381  51.8724994
  49.4807956  21.5896747  51.4022113  48.4020133  21.2464381  53.2394994
  47.6123319  20.5713112  53.5692058  49.2128161  21.2395790  53.9679579
  47.8810133  22.5634381  53.1234994  47.5480057  22.8520831  53.9763709
  50.1100133  19.8454381  52.0954994  51.2540133  20.2934381  52.1374994
  49.8480133  18.5474381  52.2304994  48.9017541  18.2194124  52.0997633
  50.8690133  17.5794381  52.5714994  51.6771504  18.0609887  53.1220652
  50.2550133  16.4704381  53.4624994  49.4987992  15.9479270  52.8766483
  51.0504307  15.7751856  53.7308933  49.6110133  17.0354381  54.7464994
  50.3552985  17.6040298  55.3040331  48.7758930  17.6865025  54.4880595
  49.0910133  15.9024381  55.6384994  47.8820133  15.6504381  55.6944994
  50.0290133  15.2144381  56.3534994  49.7435717  14.4573995  56.9580796
  51.0040879  15.4656461  56.2745977  51.4310133  16.9694381  51.3014994
  52.1110133  15.9464381  51.3514994  51.1490133  17.5884381  50.1484994
  50.7064723  18.4955881  50.1850446  51.4610133  17.0294381  48.8514994
  52.0484958  16.1184642  48.9659111  50.1470133  16.6814381  48.1014994
  49.5668815  17.5946495  47.9688681  50.3998224  16.2672335  47.1254757
  49.3790133  15.7344381  48.8334994  48.5730916  15.5349551  48.3515278
  52.2350133  17.9724381  47.9554994  52.5650133  17.6114381  46.8264994
  52.5520133  19.1794381  48.4314994  52.3448331  19.4145995  49.3916425
  53.2430133  20.1624381  47.6154994  53.8208445  19.6555432  46.8426683
  52.2350133  21.1184381  46.9324994  51.6164454  21.5771349  47.7039073
  52.7942759  21.8929960  46.4077276  51.4040133  20.4254381  46.0084994
  50.7917508  21.0435983  45.6027750  54.1150133  20.9984381  48.5114994
  53.7570133  21.2664381  49.6574994  55.2860133  21.4004381  48.0054994
  55.5057396  21.1003618  47.0664712  56.2840133  22.1604381  48.7364994
  56.4568849  21.6855610  49.7022667  57.6420133  22.2334381  47.9654994
  57.4428931  22.8343360  47.0781595  58.3941373  22.7299243  48.5786153
  58.1590133  20.8504381  47.5414994  57.6750133  19.8074381  48.0534994
  59.1100133  20.8314381  46.7144994  55.8320133  23.5624381  49.0824994
  56.0870133  24.0424381  50.1834994  55.1610133  24.2274381  48.1404994
  54.9231716  23.7037962  47.3102405  54.7990133  25.6314381  48.1954994
  54.6662274  26.0121071  49.2081978  55.8320133  26.4964381  47.4544994
  56.0624508  26.0085535  46.5074156  55.3160133  27.9314381  47.1834994
  55.0857881  28.4201556  48.1302054  56.0829622  28.5007657  46.6583744
  54.4156371  27.8847122  46.5709322  57.1540133  26.4344381  48.2734994
  56.8446208  26.3368291  49.3141000  57.6485097  25.5169605  47.9544259
  58.1230133  27.6084381  48.1384994  57.6293409  28.5262623  48.4578520
  58.9985894  27.4312015  48.7630416  58.4332281  27.7063951  47.0981768
  53.4290133  25.6754381  47.5844994  53.0780133  24.7984381  46.8104994
  52.6140133  26.6624381  47.9584994  52.9266836  27.2564519  48.7131412
  51.2880133  26.8774381  47.4204994  51.0943843  26.2222595  46.5711773
  50.1830133  26.6954381  48.4684994  50.4122694  27.3290410  49.3252896
  48.7930133  27.0774381  47.9014994  48.5628413  26.4439030  47.0449045
  48.0345899  26.9360896  48.6715093  48.8021243  28.1215028  47.5885379
  50.1930133  25.2414381  49.0194994  49.8665544  24.5892615  48.2094432
  51.2241237  25.0051847  49.2823591  49.2920133  25.0274381  50.2424994
  48.2606000  25.2630637  49.9802650  49.3561686  23.9879936  50.5642734
  49.6181682  25.6789891  51.0531807  51.3440133  28.2674381  46.8174994
  52.0760133  29.1304381  47.2924994  50.6220133  28.4884381  45.7174994
  50.1066643  27.7064975  45.3392353  50.5860133  29.7454381  45.0004994
  51.1415936  30.5112193  45.5418024  51.2370133  29.5504381  43.6154994
  52.2336952  29.1949518  43.8769452  50.6930755  28.7588349  43.1001391
  51.3560133  30.7794381  42.6894994  50.3928980  30.8850335  42.1901405
  51.7170133  32.1004381  43.3914994  52.6802931  31.9957578  43.8907317
  51.7758918  32.9004095  42.6534751  50.9509167  32.3421489  44.1282302
  52.3870133  30.4854381  41.5904994  52.0641998  29.6207444  41.0106755
  52.4750425  31.3505907  40.9333366  53.3547983  30.2759559  42.0461400
  49.1170133  30.1364381  44.9634994  48.2530133  29.3094381  44.6764994
  48.8150133  31.3874381  45.3364994  49.5690264  32.0592805  45.3503339
  47.5120133  31.8064381  45.8154994  47.0407199  30.8597506  46.0796291
  47.6320133  32.6694381  47.0884994  48.0939277  33.6245212  46.8383969
  46.6397825  32.8441817  47.5044837  48.2472413  32.1502640  47.8233818
  46.6090133  32.5414381  44.8364994  45.5440133  33.0134381  45.2264994
  46.9740133  32.5904381  43.5514994  47.9706340  32.5546118  43.3916146
  46.1090133  33.0264381  42.4514994  46.5630552  33.3447052  41.5130692
  45.0640133  31.9024381  42.1684994  44.9486079  31.3859400  43.1213959
  43.6680133  32.3024381  41.6254994  43.7825816  32.8186128  40.6723266
  43.0628877  31.4071346  41.4828267  43.1757086  32.9631903  42.3390411
  45.6870133  30.7464381  41.3384994  46.6593417  30.5320780  41.7820399
  45.0327769  29.8837183  41.4641531  45.8610133  31.0414381  39.8464994
  46.5155482  31.9038121  39.7200282  46.3025789  30.1754015  39.3534480
  44.8889830  31.2554548  39.4021418  45.6180133  34.4744381  42.4724994
  45.8540133  35.2154381  43.4204994  44.9640133  34.9174381  41.3874994
  45.0218186  34.3205664  40.5747866  44.2320133  36.1674381  41.2734994
  44.7749407  36.9579996  41.7915163  44.0340133  36.5874381  39.8034994
  43.4837429  35.8097634  39.2738538  43.4718730  37.5204741  39.7642284
  45.0062262  36.7294641  39.3315567  42.8830133  36.0124381  41.9574994
  41.8330133  35.9704381  41.3174994  42.9380133  35.9524381  43.2834994
  43.8476763  35.5967580  43.5406070  41.9280133  36.0484381  44.3064994
  42.0476823  35.2522635  45.0412678  42.0790133  37.4344381  45.0374994
  41.3543879  37.4624122  45.8512774  43.0876365  37.4818027  45.4480307
  41.8480133  38.6384381  44.1024994  40.7970133  39.3114381  44.2814994
  42.7000133  38.9014381  43.2154994  40.4770133  35.6824381  44.0964994
  40.1620133  34.5394381  43.7684994  39.5880133  36.6454381  44.3674994
  40.0243547  37.5554291  44.3272269  38.2160133  36.5604381  44.8314994
  37.9667460  37.4840924  45.3538285  37.2160133  36.3574381  43.6944994
  37.3671216  35.3641745  43.2717773  35.7610133  36.4864381  44.1984994
  35.6090041  37.4796712  44.6209693  35.0730913  36.3369555  43.3663231
  35.5731216  35.7338146  44.9642377  37.4290133  37.3334381  42.6834994
  36.7979272  37.2005331  41.9723968  38.0260133  35.5374381  45.9414994
  38.0040133  35.9014381  47.1164994  37.8940133  34.2564381  45.5874994
  38.0012892  34.0576174  44.6030902  37.6090133  33.1534381  46.4844994
  36.6627692  33.3280223  46.9965947  37.5050133  31.8154381  45.6864994
  38.4057953  31.7031252  45.0831115  37.4503693  31.0033451  46.4114953
  36.2720133  31.7714381  44.7764994  35.5740133  32.8054381  44.6154994
  36.0240133  30.6704381  44.2144994  38.6440133  32.9374381  47.5534994
  38.3240133  32.6124381  48.6944994  39.9070133  33.0834381  47.1744994
  40.0472021  33.4477480  46.2429820  41.0660133  32.7224381  47.9474994
  40.9072213  31.8480734  48.5786655  42.1880133  32.4324381  46.9474994
  42.4349681  33.3552808  46.4226423  43.4420133  31.8974381  47.6614994
  43.1959390  30.9742917  48.1862364  44.2226835  31.7001373  46.9268381
  43.7968264  32.6384309  48.3778349  41.6790133  31.4184381  45.8784994
  41.3178113  30.5395928  46.4126014  40.8485096  31.8910710  45.3541129
  42.7430133  30.9984381  44.8704994  43.5736900  30.5252750  45.3941337
  42.3127166  30.2925946  44.1600566  43.1043901  31.8767541  44.3356465
  41.3840133  33.8554381  48.8974994  41.9770133  33.6314381  49.9504994
  40.9440133  35.0804381  48.5714994  40.5711450  35.2541725  47.6490652
  41.0960133  36.2024381  49.4724994  41.9984227  36.0653360  50.0682842
  41.2120133  37.5584381  48.6914994  42.1518571  37.4291199  48.1547781
  40.4110292  37.7540972  47.9785885  41.3340133  38.7324381  49.6514994
  42.5740133  39.0364381  50.2384994  43.4867298  38.6100108  49.8223168
  42.6410133  39.8824381  51.3524994  43.6043831  40.0867831  51.8196864
  41.4770133  40.4684381  51.8634994  41.5450133  41.2604381  53.0314994
  42.4339033  41.3278461  53.3877725  40.2530133  40.2614381  51.2154994
  39.3517593  40.7553846  51.5786224  40.1880133  39.4184381  50.0994994
  39.2447562  39.2882822  49.5690039  40.0060133  36.2774381  50.5064994
  40.2770133  36.8014381  51.5874994  38.7950133  35.7684381  50.1974994
  38.6974363  35.4262057  49.2522719  37.6100133  35.7564381  51.0694994
  37.1491731  36.7441810  51.0789509  36.5650133  34.7254381  50.5564994
  36.2901529  35.0204124  49.5438094  36.9808478  33.7179996  50.5407026
  35.2970133  34.7204381  51.4284994  34.8840133  35.7584381  51.9574994
  34.7000133  33.5084381  51.6184994  33.8643121  33.4433719  52.1819438
  35.0964418  32.6817149  51.1948556  38.0460133  35.4894381  52.4924994
  38.7850133  34.5434381  52.7244994  37.6990133  36.3794381  53.4224994
  36.9052105  36.9835141  53.2641692  38.4650133  36.5554381  54.6424994
  39.4522636  36.8905104  54.3244387  37.8350133  37.6494381  55.5284994
  36.8495601  37.3245539  55.8623142  38.4714930  37.8268374  56.3954039
  37.7381125  38.5711851  54.9548342  38.6280133  35.3094381  55.4834994
  39.7210133  35.0244381  55.9724994  37.5520133  34.5334381  55.6254994
  36.6736900  34.8998518  55.2872858  37.5500133  33.2424381  56.2834994
  37.9807791  33.3443433  57.2795694  36.1350133  32.6824381  56.4184994
  35.8024350  32.3219094  55.4450976  36.1070133  31.5224381  57.4324994
  36.4390457  31.8823330  58.4063216  35.0911322  31.1361837  57.5155191
  36.7710305  30.7271068  57.0939290  35.2440133  33.6984381  56.8654994
  34.3591276  33.3350852  56.9464452  38.4220133  32.2334381  55.5684994
  39.2070133  31.5314381  56.1994994  38.3170133  32.1774381  54.2364994
  37.6549653  32.8158524  53.8191042  39.0640133  31.2904381  53.3614994
  38.8680972  30.2516842  53.6274065  38.6370133  31.5134381  51.8904994
  39.0066459  32.4824025  51.5549718  39.0675359  30.7265964  51.2711203
  37.2210133  31.4824381  51.7784994  36.9693491  31.6217753  50.8626118
  40.5440133  31.5324381  53.4584994  41.3130133  30.5924381  53.6044994
  40.9520133  32.8014381  53.4204994  40.2361983  33.4929074  53.2485162
  42.3230133  33.2434381  53.5094994  42.9433375  32.6952794  52.8004019
  42.4030133  34.7444381  53.1754994  41.9140612  34.8136440  52.2037815
  41.8266436  35.3038702  53.9123397  43.8270133  35.3364381  53.0784994
  44.2107738  35.4312917  54.0942905  44.7960133  34.4774381  52.2414994
  44.4131309  34.3825146  51.2253845  45.7760700  34.9538667  52.2168955
  44.8848249  33.4878178  52.6896787  43.7460133  36.7614381  52.5074994
  43.1365770  37.3824050  53.1640715  44.7488017  37.1828668  52.4373960
  43.2951463  36.7308687  51.5155904  42.9570133  32.9484381  54.8444994
  44.1150133  32.5434381  54.9214994  42.1990133  33.1224381  55.9274994
  41.2955122  33.5604201  55.8181524  42.6210133  32.7414381  57.2604994
  43.5717058  33.2192391  57.4971197  41.5710133  33.1824381  58.3094994
  40.6154346  32.7168182  58.0683217  41.8975497  32.8510539  59.2952269
  41.4220133  34.5964381  58.3104994  40.7679786  34.8488082  58.9663558
  42.8360133  31.2494381  57.3904994  43.8010133  30.7954381  57.9954994
  41.9380133  30.4594381  56.8034994  41.0846489  30.9022665  56.4940297
  42.0290133  29.0204381  56.7274994  42.2729202  28.6062871  57.7058079
  40.6740133  28.4374381  56.2684994  40.3377197  28.9918135  55.3923295
  40.8202092  27.3908031  56.0015125  39.6080133  28.5404381  57.3834994
  39.8443344  27.8170576  58.1638672  39.6155662  29.5452484  57.8058752
  38.2000133  28.2434381  56.8494994  37.8050133  28.7314381  55.7844994
  37.4190133  27.4274381  57.6184994  36.4830710  27.1978093  57.3162017
  37.7811773  27.0575730  58.4857586  43.1980133  28.5074381  55.9074994
  43.8350133  27.5284381  56.2914994  43.5220133  29.1844381  54.7944994
  42.8971834  29.9245475  54.5082742  44.7120133  28.9334381  53.9884994
  44.7429322  27.9004960  53.6418383  44.8340133  29.8854381  52.7794994
  44.6394516  30.8996255  53.1283116  46.2330133  29.8264381  52.1204994
  46.4281130  28.8125914  51.7709972  46.2664986  30.5142261  51.2755574
  46.9911910  30.1108803  52.8501283  43.7520133  29.6414381  51.7104994
  44.0187366  28.7366959  51.1642383  42.8025079  29.4888378  52.2235804
  43.6200133  30.8054381  50.7324994  44.5690608  30.9583558  50.2186658
  42.8437295  30.5800501  50.0012793  43.3528342  31.7104987  51.2780088
  45.9540133  29.1284381  54.8244994  46.8230133  28.2614381  54.8574994
  46.0200133  30.2574381  55.5374994  45.1956971  30.8404664  55.5114220
  47.1470133  30.6984381  56.3294994  48.0316719  30.8292332  55.7063052
  46.7870133  32.0664381  56.9744994  46.5545274  32.6792042  56.1035418
  45.8720673  31.8666484  57.5322251  47.7940133  32.8224381  57.8854994
  48.7258998  33.0127531  57.3530817  47.1410133  34.1614381  58.2704994
  46.2092402  33.9719208  58.8033980  47.8179580  34.7250932  58.9124804
  46.9325998  34.7371927  57.3687396  48.2470133  32.1344381  59.1914994
  48.7346055  31.1888460  58.9544153  48.9474607  32.7814474  59.7195654
  47.3792108  31.9466556  59.8237616  47.4620133  29.7144381  57.4174994
  48.6100133  29.3094381  57.5784994  46.4350133  29.2974381  58.1614994
  45.5179509  29.6606741  57.9443463  46.5690133  28.4094381  59.2894994
  47.2996337  28.8085113  59.9930856  45.2090133  28.2634381  60.0174994
  44.5024754  28.1023958  59.2032704  45.2094051  27.3939446  60.6748281
  44.7910133  29.5184381  60.8224994  44.9960485  30.4043183  60.2214357
  43.2920133  29.4734381  61.1754994  43.0862777  28.5880121  61.7769914
  43.0243403  30.3662091  61.7406647  42.7033873  29.4342098  60.2589401
  45.6520133  29.7114381  62.0864994  46.6976723  29.8252364  61.8005857
  45.3222099  30.6037116  62.6186450  45.5458347  28.8420297  62.7353092
  47.0850133  27.0474381  58.9164994  47.9820133  26.5244381  59.5684994
  46.5440133  26.4614381  57.8484994  45.7435753  26.9014261  57.4174439
  46.9720133  25.1724381  57.3464994  47.0269644  24.4785248  58.1852866
  46.0200133  24.6104381  56.3164994  46.0883204  25.2053151  55.4056999
  46.3780133  23.1484381  56.0014994  46.3094733  22.5528103  56.9117903
  45.6842030  22.7560134  55.2580418  47.3944784  23.0987446  55.6110767
  44.6860133  24.6424381  56.8044994  44.0935711  24.2828083  56.1402111
  48.3840133  25.2084381  56.8034994  49.1800133  24.3074381  57.0634994
  48.7210133  26.2724381  56.0694994  47.9817373  26.9239740  55.8479791
  50.0420133  26.5234381  55.5304994  50.3561627  25.6908084  54.9011050
  50.0190133  27.8074381  54.6744994  49.5137009  28.6012909  55.2245505
  51.0411971  28.1138527  54.4523497  49.3250133  27.5574381  53.4594994
  49.3116154  28.3569695  52.9283028  51.0930133  26.6414381  56.6064994
  52.1570133  26.0414381  56.5114994  50.7810133  27.3704381  57.6804994
  49.9619929  27.9575168  57.6123576  51.6020133  27.4734381  58.8674994
  52.6195762  27.7623481  58.6044480  50.9990133  28.5684381  59.8124994
  51.1984326  29.5319403  59.3434636  49.9223611  28.4073260  59.8669316
  51.5830133  28.5574381  61.2124994  52.9750133  28.5534381  61.4204994
  53.6451267  28.6180081  60.5632490  53.5010133  28.4674381  62.7154994
  54.5802974  28.4242529  62.8617278  52.6430133  28.4384381  63.8214994
  53.1780133  28.3674381  65.1264994  54.1376644  28.3441258  65.1377242
  51.2560133  28.4784381  63.6294994  50.5849349  28.4652335  64.4883241
  50.7320133  28.5354381  62.3324994  49.6528961  28.5633405  62.1814119
  51.8040133  26.1324381  59.5574994  52.9280133  25.7784381  59.9154994
  50.7250133  25.3594381  59.7124994  49.8346258  25.7553842  59.4469131
  50.7350133  24.0614381  60.3554994  51.1966708  24.1464532  61.3392392
  49.2960133  23.5134381  60.5294994  48.7506206  23.7122433  59.6069364
  49.3666147  22.4368160  60.6844201  48.5490133  24.1554381  61.7164994
  49.1720457  24.0188309  62.6003942  48.4550579  25.2195352  61.4997697
  47.1550133  23.5604381  61.9754994  47.2273364  22.4841344  62.1318282
  46.7035458  24.0248679  62.8521872  46.2740133  23.8154381  60.7894994
  46.5895594  24.4641404  60.0825940  45.0700133  23.2174381  60.6264994
  44.5660133  22.3824381  61.5574994  45.0915798  22.1927969  62.3988769
  43.6652000  21.9503867  61.4092883  44.3490133  23.4484381  59.5104994
  44.7100010  24.0676411  58.7988987  43.4513084  23.0011949  59.3913430
  51.6200133  23.0294381  59.7004994  52.2970133  22.2674381  60.3884994
  51.6400133  23.0024381  58.3654994  51.0286010  23.6246924  57.8565065
  52.4080133  22.0304381  57.6164994  52.6955926  21.2054464  58.2682556
  51.5690133  21.4644381  56.4414994  51.1276406  22.2864397  55.8779370
  52.2363853  20.8969850  55.7928764  50.4740133  20.5594381  56.9514994
  49.1220133  20.8704381  56.7444994  48.8659027  21.7921983  56.2221347
  48.1080133  20.0174381  57.1974994  47.0619655  20.2714687  57.0261684
  48.4400133  18.8404381  57.8794994  47.4240133  17.9734381  58.3364994
  46.5411557  18.2865623  58.1264631  49.7860133  18.5194381  58.1004994
  50.0482330  17.6082533  58.6381643  50.7940133  19.3694381  57.6304994
  51.8413844  19.1125233  57.7889569  53.7360133  22.5504381  57.1414994
  54.4440133  21.8624381  56.4084994  54.1170133  23.7544381  57.5794994
  53.4670578  24.2743923  58.1516049  55.4060133  24.3554381  57.2814994
  55.4989361  25.2902812  57.8342496  56.1970312  23.6716744  57.5894886
  55.5500133  24.6404381  55.8074994  56.6270133  24.4854381  55.2374994
  54.4400133  25.0184381  55.1744994  53.6645886  25.3056207  55.7544494
  54.2700133  25.0464381  53.7424994  55.1678377  24.6625461  53.2581053
  53.0800133  24.1894381  53.3144994  52.1982378  24.5464861  53.8465604
  52.8250133  24.2564381  51.7934994  53.7062437  23.8990845  51.2607414
  51.9692866  23.6306342  51.5401212  52.6191989  25.2869731  51.5041235
  53.3220133  22.8314381  53.6644994  52.5739032  22.2934187  53.3953029
  54.0330133  26.4804381  53.3394994  53.0080133  27.0384381  53.7184994
  54.9290133  27.1354381  52.5834994  56.3370133  26.7424381  52.4884994
  56.4029248  25.8489000  51.8677372  56.6985181  26.5149949  53.4913368
  57.0540133  27.9424381  51.8684994  57.8644859  27.6234045  51.2131744
  57.4490596  28.6066269  52.6371951  55.9340133  28.6244381  51.0804994
  55.7382248  28.2075290  50.0925962  56.1686285  29.6847606  50.9868436
  54.7080133  28.4384381  51.9754994  54.7431552  29.1491784  52.8011576
  53.4360133  28.6414381  51.1924994  52.8640133  27.6874381  50.6724994
  53.0180133  29.8994381  51.1074994  53.5531552  30.5730243  51.6366535
  51.9090133  30.3734381  50.3244994  51.6828864  29.6518206  49.5394936
  50.6430133  30.6614381  51.1314994  50.1700386  31.5867426  50.8025513
  49.6910133  29.4794381  50.8744994  50.1631438  28.5537718  51.2036430
  48.7646856  29.6312072  51.4285605  49.4701320  29.4151572  49.8090518
  50.9510133  30.8634381  52.6394994  51.3333822  29.9158471  53.0189282
  51.7297107  31.6229486  52.7093103  49.7410133  31.2954381  53.4724994
  48.9620211  30.5361511  53.4035486  50.0401005  31.4148699  54.5138361
  49.3583481  32.2432522  53.0939290  52.4740133  31.6474381  49.7594994
  53.0520133  32.4474381  50.4904994  52.3580133  31.8324381  48.4454994
  51.9280686  31.0969789  47.9029621  52.8780133  32.9844381  47.7464994
  53.1858116  33.7694554  48.4372289  54.0390133  32.6474381  46.8074994
  53.7612636  31.7700163  46.2234733  54.3710133  33.8194381  45.8514994
  54.6493233  34.6971461  46.4348284  55.2005197  33.5365526  45.2034286
  53.4972322  34.0507888  45.2423340  55.2790133  32.1994381  47.6294994
  54.9448925  31.3970223  48.2872174  56.0020721  31.8056980  46.9151786
  55.9350133  33.3024381  48.4634994  55.2126501  33.6963744  49.1784157
  56.7904119  32.8925367  49.0005035  56.2698278  34.1050516  47.8063764
  51.7030133  33.5724381  47.0304994  50.9370133  32.8524381  46.4064994
  51.5140133  34.8874381  47.1474994  52.1749820  35.4219715  47.6929292
  50.4100133  35.5864381  46.5324994  49.5884338  34.8898812  46.3654220
  50.0773086  36.3885958  47.1912481  50.8260133  36.1764381  45.2154994
  52.0100133  36.3264381  44.9254994  49.8360133  36.5664381  44.4124994
  48.8926624  36.3520450  44.7027130  50.0220133  37.3904381  43.2354994
  51.0303630  37.2575938  42.8434758  49.0000133  36.9854381  42.1294994
  47.9858473  36.7873464  42.4763799  48.9877636  37.8227976  41.4318040
  49.4300133  35.7764381  41.3434994  49.1820133  34.4804381  41.8134994
  48.8245473  34.3389223  42.8334461  49.3900133  33.3704381  40.9834994
  49.1535161  32.3699845  41.3458009  49.9000133  33.5444381  39.6924994
  50.0570745  32.6806369  39.0465278  50.2080133  34.8264381  39.2314994
  50.6314664  34.9689504  38.2372771  49.9700133  35.9294381  40.0534994
  50.2033084  36.9335372  39.6992987  49.6440133  38.8144381  43.5774994
  49.8220133  39.7264381  42.7724994  49.0970133  39.0224381  44.7764994
  49.1006368  38.2605082  45.4394845  48.5200133  40.2804381  45.1834994
  48.9415662  41.0875302  44.5843377  46.9850133  40.2704381  44.9894994
  46.5552941  39.5441587  45.6793972  46.6017475  41.2637112  45.2231998
  46.6280133  39.9264381  43.6564994  45.6718869  39.9294272  43.5703999
  48.8450133  40.4374381  46.6464994  49.2560133  39.4844381  47.3024994
  48.7140133  41.6584381  47.1714994  48.2196969  42.3644750  46.6449422
  49.2740133  42.0264381  48.4594994  50.1249403  41.3863809  48.6926290
  49.7570133  43.5034381  48.4294994  49.9015889  43.8090416  49.4657444
  50.7161858  43.5110942  47.9117836  48.7900133  44.4844381  47.7344994
  48.7752207  44.2397779  46.6724149  47.7974588  44.3276007  48.1568022
  49.1970133  45.9564381  47.9154994  49.1499512  46.1757084  48.9821787
  50.2266281  46.0515813  47.5706218  48.3070133  46.9474381  47.1494994
  48.4531495  46.7919456  46.0805902  47.2661009  46.7502458  47.4058500
  48.6440133  48.3504381  47.4954994  49.6083851  48.5334941  47.2576394
  48.0447741  48.9779123  46.9785000  48.5082577  48.4948473  48.4858607
  48.3150133  41.8814381  49.6034994  48.6930133  42.0434381  50.7624994
  47.0670133  41.5254381  49.3014994  46.8054422  41.4484444  48.3290017
  46.0670133  41.2434381  50.3034994  46.0893123  42.0194767  51.0685915
  45.0815976  41.2209404  49.8381511  46.3330133  39.9154381  50.9474994
  46.1000133  39.7474381  52.1434994  46.8560133  38.9604381  50.1714994
  46.9901392  39.1686932  49.1923470  47.2780133  37.6664381  50.6614994
  46.4264950  37.1393681  51.0918633  47.8590133  36.8094381  49.5054994
  48.7047236  37.2797015  49.0037766  48.1653899  35.8420061  49.9033797
  46.8350133  36.5334381  48.4504994  47.0420133  36.9414381  47.1244994
  47.9403795  37.5053282  46.8733697  46.1120133  36.6324381  46.1314994
  46.2661677  36.9729747  45.1075991  44.9770133  35.8814381  46.4554994
  44.2680979  35.6102102  45.6732115  44.7500133  35.4794381  47.7734994
  43.8559207  34.9106739  48.0288539  45.6750133  35.8094381  48.7664994
  45.4993184  35.5043562  49.7980789  48.3700133  37.7644381  51.6804994
  48.3130133  37.1204381  52.7204994  49.3760133  38.5794381  51.3744994
  49.2638140  39.0765764  50.5025108  50.6080133  38.7444381  52.1004994
  51.0047406  37.7674948  52.3767031  51.6420133  39.4974381  51.2834994
  51.5251063  40.5719688  51.4242717  53.0360133  39.0654381  51.7704994
  53.1538446  37.9910237  51.6296086  53.8003988  39.5922520  51.1992879
  53.1428169  39.3065398  52.8281204  51.5040133  39.2314381  49.7694994
  51.8008232  38.2036181  49.5607152  50.4639839  39.3753425  49.4767027
  52.3870133  40.1824381  48.9824994  53.4273190  40.0387861  49.2744378
  52.2783000  39.9819840  47.9166200  52.0904810  41.2105112  49.1904273
  50.3620133  39.4174381  53.4214994  50.9310133  39.0234381  54.4364994
  49.4800133  40.4224381  53.4244994  49.1208231  40.7290567  52.5317135
  49.0460133  41.1204381  54.6144994  49.9088050  41.5258851  55.1429901
  48.1050133  42.2874381  54.2364994  48.6344081  42.9131076  53.5179050
  47.2243498  41.8550426  53.7615616  47.6690133  43.1464381  55.4434994
  47.0700008  42.4977876  56.0826687  48.5826531  43.4281776  55.9669373
  46.8640133  44.4124381  55.0994994  46.6115131  44.9623565  56.0061042
  47.4341382  45.0574043  54.4308622  45.5930133  44.0104381  54.4114994
  44.8206025  43.7342552  55.0007395  45.4120133  44.0164381  53.0694994
  46.3310133  44.5154381  52.2194994  47.1910786  44.9025186  52.5808253
  46.1555454  44.5000834  51.2249770  44.2780133  43.4804381  52.5714994
  43.5905761  43.0881238  53.1988905  44.1218965  43.4740333  51.5736591
  48.3470133  40.1944381  55.5734994  48.6010133  40.2374381  56.7754994
  47.4730133  39.3274381  55.0484994  47.2220619  39.4137069  54.0739839
  46.8180133  38.3104381  55.8364994  46.3500544  38.8267662  56.6746634
  45.7330133  37.5724381  55.0494994  46.1874372  37.0430141  54.2120573
  45.2327692  36.8572257  55.7024368  45.0048168  38.2905993  54.6725731
  47.7940133  37.2984381  56.3934994  47.8160133  37.0714381  57.6004994
  48.6590133  36.7384381  55.5414994  48.6370256  36.9578270  54.5558603
  49.6520133  35.8004381  56.0124994  50.4180260  36.3867251  56.5200340
  49.1522399  35.1542108  56.7341061  50.3050133  34.9474381  54.9624994
  50.7800133  33.8624381  55.2884994  50.3840133  35.3894381  53.7044994
  49.8124515  36.1723458  53.4208239  51.2240133  34.7524381  52.7054994
  51.2103620  33.6761634  52.8773878  50.7960133  35.0244381  51.2484994
  50.8135431  36.0975957  51.0584324  51.4845487  34.5240815  50.5675716
  49.7871192  34.6440902  51.0886017  52.6380133  35.2314381  52.9284994
  52.8550133  36.2984381  53.5014994  53.6240133  34.4264381  52.5214994
  53.3709271  33.5166488  52.1632674  55.0310133  34.7424381  52.6614994
  55.2654844  35.0633682  53.6764508  55.9420133  33.5744381  52.2724994
  55.6002796  33.1754170  51.3174598  57.4230133  34.0194381  52.1464994
  57.7656203  34.4181731  53.1013457  58.0378884  33.1631826  51.8692706
  57.5074594  34.7900303  51.3802386  55.7640133  32.4304381  53.2994994
  55.7570758  32.8838558  54.2906931  54.7959323  31.9688715  53.1048845
  56.8590133  31.3644381  53.2344994  57.8274022  31.8252019  53.4294854
  56.6648027  30.5971657  53.9839489  56.8662601  30.9102190  52.2436753
  55.4260133  35.9774381  51.8944994  56.1220133  36.8374381  52.4224994
  54.9940133  36.0854381  50.6414994  54.3059334  35.4455543  50.2711020
  55.5000133  37.1174381  49.7774994  55.4658777  38.0941048  50.2602582
  56.9530133  36.8404381  49.3244994  57.0015088  35.8697228  48.8310826
  57.2717276  37.6171242  48.6293159  57.6110416  36.8390147  50.1934620
  54.6040133  37.1664381  48.5794994  53.7300133  36.3194381  48.4104994
  54.7910133  38.1814381  47.7374994  55.4621162  38.8957826  47.9812865
  54.0800133  38.3094381  46.4924994  53.9231536  37.3324715  46.0353008
  53.1172759  38.7969284  46.6460870  54.9110133  39.1504381  45.5724994
  55.9900133  39.6224381  45.9314994  54.4070133  39.3624381  44.3594994
  53.6145357  38.8071637  44.0701054  54.9000133  40.3784381  43.4544994
  55.4773383  41.0932647  44.0408594  55.7720133  39.8744381  42.3004994
  55.1389601  39.5783126  41.4640464  56.7170133  41.0034381  41.8534994
  57.3507470  41.2997975  42.6893537  57.3410507  40.6517023  41.0319408
  56.1296398  41.8597469  41.5220962  56.5420133  38.7434381  42.6844994
  57.0759254  38.4526289  41.9415537  53.5770133  40.8774381  42.9304994
  52.7860133  40.0794381  42.4304994  53.2870133  42.1714381  43.0944994
  54.0181302  42.8401244  43.2905252  51.9200133  42.6564381  42.9854994
  51.2949283  41.9821586  42.4000807  51.2460133  42.8914381  44.3514994
  50.1690896  42.9865909  44.2126457  51.5400133  41.7014381  45.2854994
  52.6167956  41.6059291  45.4252095  51.0624432  41.8698406  46.2507288
  51.1490444  40.7856553  44.8421182  51.6570133  44.2294381  45.0134994
  51.3781051  45.0581590  44.3627046  51.1474576  44.3330388  45.9714762
  52.7352241  44.2403731  45.1730076  51.9420133  43.9624381  42.2564994
  52.9410133  44.6724381  42.2794994  50.8170133  44.3244381  41.6394994
  50.0805125  43.6391460  41.5498295  50.6170133  45.6284381  41.0444994
  51.5830406  46.0802543  40.8192159  49.8030133  45.5154381  39.7274994
  49.5738667  46.5242197  39.3840599  50.4255955  45.0128359  38.9873085
  48.5940133  44.7884381  39.9014994  48.1245589  44.7433808  39.0653283
  49.9220133  46.5424381  42.0144994  49.3370133  46.1034381  43.0054994
  49.9870133  47.8464381  41.7424994  50.4851778  48.1342388  40.9123776
  49.3800133  48.8644381  42.5624994  49.4648533  48.6003991  43.6166269
  50.1000133  50.2124381  42.3314994  51.1747853  50.0369191  42.3779481
  49.8341591  50.5748536  41.3384855  49.7360133  51.1854381  43.3044994
  50.2025907  52.0054614  43.1271097  47.9420133  48.9614381  42.1444994
  47.6270133  49.4234381  41.0504994  47.0440133  48.5204381  43.0254994
  47.3987630  48.1083344  43.8766296  45.6150133  48.5234381  42.8094994
  45.3835724  48.2374099  41.7834769  44.9570133  47.5044381  43.7664994
  45.3807682  47.7728394  44.7342245  43.8716369  47.5958457  43.8077631
  45.3400133  46.0394381  43.4224994  46.2258433  46.0596869  42.7876797
  45.6320133  45.2054381  44.6844994  44.7464324  45.1843423  45.3196374
  45.8954495  44.1880372  44.3953668  46.4610462  45.6530293  45.2326481
  44.2790133  45.3774381  42.5244994  44.1882952  45.9383931  41.5943386
  44.5779783  44.3529783  42.3026808  43.3185354  45.3715966  43.0398119
  45.0830133  49.9184381  42.9914994  44.0420133  50.2744381  42.4464994
  45.8380133  50.7404381  43.7214994  46.5778130  50.2942202  44.2446489
  45.6660133  52.1614381  43.8604994  44.6535945  52.3957548  44.1894416
  46.6660133  52.6834381  44.9244994  46.4035911  52.2095113  45.8703468
  47.6595169  52.3561315  44.6180339  46.6610133  54.2124381  45.0984994
  47.0444264  54.6451595  44.1744608  45.6392912  54.5547497  45.2628341
  47.5390133  54.6514381  46.2684994  47.3500133  54.1114381  47.3914994
  48.3920133  55.5524381  46.0514994  45.8600133  52.9094381  42.5634994
  45.1080133  53.8264381  42.2464994  46.8830133  52.5324381  41.7914994
  47.4017396  51.6983850  42.0268245  47.2730133  53.2724381  40.6114994
  47.0767363  54.3352401  40.7530140  48.7880133  53.0794381  40.3474994
  49.2886929  53.1723307  41.3112370  48.9138125  52.0648139  39.9695940
  49.4060133  54.0804381  39.3484994  50.4809736  53.9161019  39.2739679
  48.9479794  53.9344564  38.3702375  49.1610133  55.5284381  39.7934994
  48.2410133  56.1984381  39.3154994  50.0090133  56.0134381  40.7484994
  49.8993520  56.9600458  41.0831777  50.7418125  55.4232246  41.1155890
  46.5070133  52.7634381  39.4254994  46.2380133  53.5094381  38.4874994
  46.0890133  51.4944381  39.4814994  46.4677605  50.9254360  40.2250628
  45.1920133  50.8744381  38.5334994  45.5916347  50.9530781  37.5224516
  45.0360133  49.3724381  38.8894994  46.0503493  48.9981456  38.7511991
  44.7541514  49.2776880  39.9381539  44.0600133  48.5494381  38.0174994
  43.0514574  48.9168624  38.2070124  44.3710133  48.6574381  36.5134994
  45.3793069  48.2897402  36.3231280  43.6544764  48.0598643  35.9499559
  44.2997498  49.6992803  36.2011109  44.0280133  47.0744381  38.4574994
  43.7031909  47.0115201  39.4960711  43.3329410  46.5213076  37.8258172
  45.0252202  46.6447102  38.3625709  43.8760133  51.5904381  38.5444994
  43.3610133  51.9584381  37.4964994  43.3660133  51.8784381  39.7394994
  43.9060830  51.5837290  40.5404805  42.1470133  52.6074381  39.9694994
  41.2970444  52.0626761  39.5585415  41.9580133  52.7414381  41.4674994
  42.7968982  53.2928048  41.8921956  41.0311468  53.2778210  41.6707529
  41.9098950  51.7501837  41.9182750  42.1540133  54.0094381  39.4244994
  41.2080133  54.4204381  38.7654994  43.2310133  54.7604381  39.6644994
  43.9720559  54.3716995  40.2300412  43.3770133  56.1184381  39.1794994
  42.5394340  56.7271928  39.5200544  44.6910133  56.7394381  39.7164994
  45.5016350  56.0476322  39.4875969  44.8542912  57.6777836  39.1864542
  44.6570133  57.0054381  41.2294994  43.9948366  57.8549275  41.3968030
  44.2385849  56.1196248  41.7073641  46.0400133  57.3074381  41.8314994
  46.7047699  56.4818235  41.5774160  46.4114870  58.2255881  41.3764090
  45.9930133  57.4754381  43.3574994  45.4011369  58.3608241  43.5896080
  45.5139187  56.5958037  43.7873957  47.3530133  57.6264381  43.9294994
  47.7969651  58.4417178  43.5315981  47.2867013  57.7344849  44.9315117
  47.9014897  56.8059380  43.7149012  43.3860133  56.1984381  37.6774994
  42.7020133  57.0314381  37.0854994  44.1310133  55.2884381  37.0504994
  44.7006855  54.7044692  37.6459432  44.2390133  55.1204381  35.6244994
  44.5290395  56.0603784  35.1549292  45.3120133  54.0604381  35.3084994
  45.1194270  53.1955160  35.9432589  45.2998195  53.7529760  34.2628329
  46.7160133  54.5104381  35.6084994  47.8110133  53.6914381  35.4424994
  47.8009872  52.7244963  35.1509128  48.9110133  54.4204381  35.7424994
  49.8836316  53.9345210  35.6650575  48.5830133  55.6494381  36.0914994
  47.2010133  55.7174381  36.0134994  46.6861646  56.6456398  36.2614380
  42.9440133  54.7504381  34.9624994  42.6350133  55.2164381  33.8704994
  42.1640133  53.9004381  35.6234994  42.5745935  53.4586340  36.4336429
  40.8430133  53.4964381  35.2224994  40.8471822  53.1084080  34.2039148
  40.3730133  52.3834381  36.1694994  40.6388258  52.6490878  37.1926676
  39.2895036  52.2984368  36.0865446  41.0220133  51.0374381  35.8044994
  42.0764360  51.2130572  35.5913056  40.8950133  50.0234381  36.9294994
  39.8407922  49.8469426  37.1429616  41.3663238  49.0872151  36.6304111
  41.3867129  50.4079071  37.8230964  40.3600133  50.4294381  34.5804994
  40.4650305  51.1089673  33.7347389  40.8371694  49.4785531  34.3433470
  39.3019963  50.2637658  34.7836046  39.8720133  54.6374381  35.1634994
  39.1510133  54.7974381  34.1834994  39.8620133  55.4894381  36.1834994
  40.4673459  55.3389458  36.9778695  38.8760133  56.5464381  36.2624994
  37.9909719  56.2109797  35.7218807  38.4710133  56.9264381  37.6564994
  38.2759417  57.9964444  37.7281496  37.1780133  56.1474381  37.9634994
  37.3724264  55.0772692  37.8924944  36.8384984  56.3884631  38.9708403
  36.4068966  56.4245822  37.2447013  39.4840133  56.5804381  38.5774994
  39.2099756  56.8296640  39.4631574  39.2370133  57.7824381  35.4864994
  38.3650133  58.5954381  35.1874994  40.5100133  57.9504381  35.1244994
  41.2426126  57.3369726  35.4516961  40.8800133  59.0864381  34.3094994
  40.2575495  59.9421046  34.5711725  42.3680133  59.4684381  34.5334994
  42.4971838  60.4581707  34.0955000  42.5074677  59.5283405  35.6128808
  43.4080133  58.5024381  33.9344994  43.1870974  57.5001367  34.3014993
  43.2989388  58.5240093  32.8501855  44.8450133  58.8784381  34.3104994
  45.0530133  59.9374381  34.9584994  45.7590133  58.0904381  33.9444994
  40.5960133  58.7894381  32.8614994  40.4190133  59.7064381  32.0614994
  40.4850133  57.5034381  32.5154994  40.8200969  56.8025233  33.1608961
  40.0700133  57.0794381  31.1994994  40.2805284  57.8886761  30.5002739
  40.7690133  55.8314381  30.7174994  40.2989419  55.4569368  29.8081690
  42.2370133  56.2104381  30.4194994  42.7079121  56.5846157  31.3285346
  42.7756867  55.3306259  30.0675609  42.2644941  56.9838154  29.6518843
  40.7260133  54.8154381  31.7094994  41.1749234  54.0316062  31.3844031
  38.5710133  56.9744381  31.1154994  38.0050133  57.1424381  30.0444994
  37.8930133  56.7754381  32.2484994  38.4047464  56.4786254  33.0671146
  36.4510133  56.9304381  32.3554994  35.8914211  56.3919499  31.5906555
  35.9550133  56.5164381  33.7314994  36.7308951  56.7859632  34.4480635
  34.6200133  57.1784381  34.1444994  33.8434843  56.9089770  33.4286125
  34.3339853  56.8319520  35.1375936  34.7401759  58.2616992  34.1588327
  35.8980133  54.9794381  33.8014994  36.8255081  54.5948187  33.3773269
  35.8360604  54.6987153  34.8529061  34.7100133  54.3884381  33.0464994
  34.7715303  54.6683668  31.9948553  34.7270075  53.3021202  33.1343850
  33.7820821  54.7722655  33.4704334  36.0470133  58.3504381  32.0914994
  35.1260133  58.5984381  31.3184994  36.7590133  59.2954381  32.7104994
  37.4770903  58.9781836  33.3459634  36.5380133  60.7134381  32.5824994
  35.5011939  60.9556382  32.8158313  37.4620133  61.4784381  33.5724994
  37.2791673  61.1738087  34.6029690  38.5075995  61.2999794  33.3214972
  37.2540133  62.9754381  33.5204994  35.9790133  63.5264381  33.7474994
  35.1400108  62.8640592  33.9606397  35.7830133  64.9114381  33.7014994
  34.7880469  65.3256492  33.8645077  36.8630133  65.7644381  33.4464994
  36.7126075  66.8436421  33.4182731  38.1380133  65.2294381  33.2274994
  38.9809665  65.8915936  33.0298122  38.3300133  63.8434381  33.2624994
  39.3218295  63.4260670  33.0887119  36.7730133  61.1674381  31.1594994
  36.0250133  61.9784381  30.6254994  37.8090133  60.6234381  30.5184994
  38.4090182  60.0064222  31.0470681  38.1490133  60.8954381  29.1434994
  38.3166459  61.9686704  29.0531067  39.4440133  60.1594381  28.7464994
  39.2890086  59.0832467  28.8232172  39.7082590  60.4157129  27.7205376
  40.2517528  60.4581969  29.4146306  37.0510133  60.5064381  28.1774994
  36.7280133  61.2564381  27.2584994  36.4440133  59.3374381  28.3904994
  36.8032287  58.7462794  29.1264309  35.3510133  58.8404381  27.5834994
  35.5534604  59.0213189  26.5278496  35.1840133  57.3274381  27.7994994
  35.0438622  57.2210351  28.8752016  34.2974368  56.9633571  27.2803393
  36.4150133  56.5034381  27.3564994  37.3140852  56.9144818  27.8156439
  36.2370133  55.0544381  27.7964994  35.3383316  54.6425409  27.3373581
  37.1034502  54.4707200  27.4855957  36.1418297  55.0127364  28.8815346
  36.6950133  56.5734381  25.8554994  36.8777478  57.6086565  25.5673495
  37.5725946  55.9711298  25.6206011  35.8346547  56.1905178  25.3066332
  34.0540133  59.5544381  27.8624994  33.2400133  59.7484381  26.9614994
  33.8680133  59.9894381  29.1094994  34.5605679  59.6977880  29.7843385
  32.7510133  60.7814381  29.5724994  31.8102233  60.2910080  29.3225160
  32.8330133  60.9404381  31.1134994  32.9594880  59.9378564  31.5220743
  33.7266172  61.5305148  31.3169240  31.6120133  61.6134381  31.7724994
  31.5846993  62.6547599  31.4515577  30.7089436  61.1056072  31.4338669
  31.6890133  61.5524381  33.3024994  32.7200133  61.0794381  33.8524994
  30.6940133  61.9814381  33.9444994  32.7130133  62.1344381  28.9014994
  31.6340133  62.6214381  28.5654994  33.8880133  62.7444381  28.6834994
  34.7251859  62.2892811  29.0182734  34.0210133  64.0304381  28.0224994
  33.4773882  64.7890922  28.5855400  35.5170133  64.4554381  27.9304994
  36.0218031  63.5835056  27.5145423  35.6590822  65.3080365  27.2664268
  36.1060133  64.7774381  29.3074994  35.3290133  65.0484381  30.2594994
  37.3630133  64.8424381  29.3874994  33.4410133  64.0234381  26.6224994
  32.5450133  64.8174381  26.3444994  33.9070133  63.0944381  25.7794994
  34.7370992  62.6012904  26.0759150  33.3240133  62.7504381  24.4964994
  32.4535052  62.1212507  24.6820745  32.8970133  63.9314381  23.5834994
  33.7602173  64.5655337  23.3812577  32.5050045  63.5417734  22.6440364
  32.1256240  64.5172900  24.0833346  34.3540133  61.9504381  23.7354994
  34.7400133  62.3194381  22.6264994  34.8220133  60.8394381  24.3084994
  34.6325021  60.6645462  25.2850227  35.7210133  59.9414381  23.6114994
  35.7959870  60.2509048  22.5690463  37.1360133  59.9454381  24.2304994
  37.0411304  59.6926633  25.2865304  37.7253593  59.1799420  23.7257349
  37.8380133  61.3084381  24.0904994  37.8939040  61.5464000  23.0282606
  37.2237070  62.0527331  24.5972091  39.2510133  61.3164381  24.6914994
  39.1755287  60.9787505  25.7251184  39.8589239  60.6124006  24.1232781
  39.9060133  62.7044381  24.6534994  40.0126520  63.0113502  23.6130506
  39.2591695  63.4096914  25.1753326  41.2390133  62.6844381  25.3014994
  41.8386817  62.0313125  24.8178420  41.6462103  63.6078905  25.2624339
  41.1403717  62.4004836  26.2657290  35.0690133  58.5924381  23.5574994
  34.2990133  58.2344381  24.4444994  35.3070133  57.8594381  22.4674994
  36.0087146  58.1983552  21.8249654  34.6040133  56.6394381  22.1344994
  33.5327962  56.7751349  22.2834272  34.8540133  56.2654381  20.6534994
  35.9292507  56.1438623  20.5224150  34.3558426  55.3141776  20.4663376
  34.3330133  57.3204381  19.6624994  33.2797716  57.4935463  19.8834434
  34.8944979  58.2397525  19.8289269  34.4840133  56.8864381  18.1944994
  35.5423293  56.7024565  18.0095208  33.9261715  55.9592822  18.0629930
  33.9670133  57.9394381  17.2034994  32.9120994  58.1221871  17.4080964
  34.5299192  58.8613499  17.3494949  34.1260133  57.4804381  15.8034994
  33.6041381  56.6264145  15.6678908  33.7787683  58.1906256  15.1748863
  35.1034966  57.3114514  15.6135807  35.0070133  55.4634381  23.0034994
  36.2010133  55.1614381  23.0374994  34.1020133  54.7524381  23.7094994
  32.7520133  55.2464381  24.0194994  32.0640256  54.8810278  23.2571029
  32.7674498  56.3361874  24.0019776  32.4390133  54.6914381  25.4054994
  31.3684492  54.5538674  25.5573737  32.8393792  55.3245957  26.1972821
  33.1690133  53.3574381  25.3554994  32.5881033  52.6400193  24.7758849
  33.3818272  52.9409279  26.3400446  34.4840133  53.6764381  24.6254994
  35.2965136  54.0592619  25.2430652  34.9250133  52.4044381  23.9484994
  35.0930133  51.4004381  24.6344994  35.1060133  52.4244381  22.6354994
  35.0136310  53.3144840  22.1671159  35.4210133  51.2714381  21.8464994
  35.5071424  50.3897902  22.4816199  34.2860133  51.0284381  20.8094994
  34.7545343  50.3142751  20.1323299  33.4675191  50.5420526  21.3401559
  33.7320133  52.2304381  19.9924994  33.4948533  53.0175482  20.7082603
  34.6990133  52.7804381  18.9264994  34.9362876  51.9939742  18.2100677
  34.2302041  53.6157266  18.4062959  35.6156196  53.1212598  19.4079284
  32.3990133  51.8284381  19.3264994  31.6783133  51.5484384  20.0948034
  32.0100426  52.6702824  18.7536982  32.5659295  50.9822814  18.6599734
  36.7250133  51.5224381  21.1354994  37.0730133  50.8014381  20.2034994
  37.4620133  52.5534381  21.5584994  37.1872224  53.0539383  22.3916193
  38.6550133  52.9784381  20.8674994  38.9132406  52.2321279  20.1162078
  38.4220133  54.3294381  20.1604994  38.1714083  55.0891102  20.9009016
  39.3280159  54.6239465  19.6308539  37.6017342  54.2312870  19.4494384
  39.8260133  53.1664381  21.7964994  40.9760133  53.0764381  21.3684994
  39.5640133  53.4194381  23.0794994  38.6040750  53.4143567  23.3934929
  40.5990133  53.7394381  24.0404994  41.4424594  54.2233100  23.5479896
  40.0160133  54.7174381  25.1054994  39.5574800  55.5679465  24.6010374
  39.2588968  54.1865856  25.6826218  41.0920133  55.2404381  26.0704994
  42.2910133  54.9844381  25.9194994  40.6270133  56.0154381  27.0954994
  41.2745515  56.3958505  27.7708367  39.6378800  56.2043513  27.1731389
  41.0790133  52.4504381  24.6664994  40.4870133  51.9714381  25.6294994
  42.1530133  51.8914381  24.1044994  42.4716833  52.4203097  23.3052225
  42.8760133  50.6814381  24.4634994  42.4481255  49.8213190  23.9485175
  44.3660133  50.8174381  24.0484994  44.7997576  51.6568054  24.5920319
  44.8854508  49.8995740  24.3238361  44.5020133  51.0374381  22.6504994
  45.4325202  51.1167582  22.4280920  42.9070133  50.2674381  25.9074994
  42.9340133  51.0984381  26.8154994  42.9690133  48.9524381  26.1394994
  42.7839337  48.3197198  25.3743115  43.3100133  48.3904381  27.4254994
  42.6696530  48.8217737  28.1949066  43.2370133  46.8754381  27.4974994
  43.9371878  46.4541510  26.7761304  43.5980133  46.3754381  28.9204994
  42.8979423  46.7959662  29.6424116  43.5393721  45.2874060  28.9496243
  44.6108052  46.6910308  29.1710051  41.8400133  46.4074381  27.0674994
  41.1163666  46.7683820  27.7983589  41.6174210  46.8403180  26.0922215
  41.7580133  44.8914381  26.9794994  41.9800456  44.4578332  27.9545832
  40.7540385  44.5985807  26.6723051  42.4811022  44.5297689  26.2484469
  44.7380133  48.7784381  27.7274994  45.6070133  48.6614381  26.8634994
  45.0010133  49.2224381  28.9554994  44.2394544  49.5534065  29.5304665
  46.3470133  49.4514381  29.4084994  47.0694086  48.9846273  28.7389235
  46.7020133  50.9244381  29.5564994  45.8446029  51.4284236  30.0025321
  47.9520133  51.1604381  30.4344994  48.8099950  50.6571027  29.9888291
  48.1530772  52.2296431  30.5013899  47.7757206  50.7612297  31.4333263
  46.8930133  51.5324381  28.1484994  45.9689243  51.4300960  27.5795639
  47.1479321  52.5882845  28.2396272  47.6970808  51.0083436  27.6318745
  46.5720133  48.5864381  30.6184994  45.6840133  48.4014381  31.4434994
  47.7530133  47.9734381  30.7024994  48.4865567  48.2845144  30.0818184
  48.0330133  46.8764381  31.5964994  47.1309988  46.5914335  32.1380171
  48.5350133  45.6374381  30.7694994  48.6096183  44.7804473  31.4389022
  47.7710776  45.4441509  30.0164109  49.8750133  45.8644381  30.0854994
  51.0320133  45.2474381  30.5944994  50.9430039  44.5945451  31.4627779
  52.2830133  45.4604381  30.0044994  53.1737248  44.9966095  30.4282893
  52.3910133  46.2814381  28.8754994  53.6530133  46.4974381  28.2804994
  54.3638765  46.0348341  28.7302446  51.2440133  46.8754381  28.3324994
  51.3246520  47.5072092  27.4479300  49.9930133  46.6574381  28.9264994
  49.0982795  47.1033049  28.4920408  49.0790133  47.3234381  32.6054994
  49.9360133  48.1344381  32.2534994  49.0430133  46.8664381  33.8734994
  48.0620133  45.9074381  34.3784994  47.8719054  45.1740175  33.5948837
  47.1422670  46.4490980  34.5993394  48.6860133  45.2834381  35.6284994
  49.2485365  44.3829988  35.3817691  47.9253283  45.0438290  36.3714981
  49.6050133  46.3954381  36.1284994  50.4472235  45.9949264  36.6927436
  49.0715425  47.1229253  36.7402762  50.1090133  47.0624381  34.8424994
  50.2143881  48.1342668  35.0103609  51.4300133  46.4934381  34.3824994
  51.4400133  45.4184381  33.7854994  52.5300133  47.2014381  34.6384994
  52.4591986  48.0513757  35.1795083  53.8310133  46.8024381  34.1584994
  53.8040052  45.7802522  33.7809998  54.2490133  47.7464381  33.0024994
  53.4172335  47.7609352  32.2982045  54.3710352  48.7371692  33.4402921
  55.5380133  47.3504381  32.2644994  56.3695118  47.4390271  32.9636868
  55.4407880  46.3125465  31.9460179  55.8030133  48.2404381  31.0374994
  54.9386909  48.1599073  30.3782873  55.8967879  49.2679596  31.3889325
  57.0710133  47.8454381  30.2684994  57.9258913  47.9192598  30.9406858
  56.9667341  46.8159646  29.9258490  57.2820133  48.7354381  29.1014994
  57.3790952  49.6893661  29.4188260  58.1204948  48.4562989  28.6124901
  56.4901689  48.6668591  28.4782992  54.8450133  46.8784381  35.2724994
  55.8390133  46.1544381  35.2544994  54.5910133  47.7134381  36.2844994
  53.8181554  48.3593161  36.2094561  55.4030133  47.7524381  37.4794994
  56.4004053  47.3765449  37.2514364  55.5320133  49.2044381  38.0304994
  56.0495742  49.7763015  37.2603032  54.5491656  49.6411257  38.2077398
  56.3390133  49.2394381  39.3134994  57.7430133  49.1774381  39.2734994
  58.2507745  49.1842231  38.3090140  58.4890133  49.1074381  40.4574994
  59.5771793  49.0634305  40.4121118  57.8390133  49.1044381  41.6984994
  58.5910133  49.0054381  42.8904994  59.5362430  48.9455373  42.7338075
  56.4420133  49.1894381  41.7494994  55.9341476  49.1908463  42.7139531
  55.6980133  49.2724381  40.5664994  54.6127166  49.3635224  40.6104856
  54.7520133  46.8524381  38.4884994  53.5390133  46.9094381  38.6924994
  55.5600133  46.0124381  39.1324994  56.5443961  46.0204512  38.9066108
  55.1060133  45.1254381  40.1664994  54.1037629  45.4138964  40.4833354
  55.0620133  43.6564381  39.6534994  56.0673158  43.2596941  39.5118643
  54.5117724  43.0136661  40.3406523  54.3660133  43.5564381  38.3174994
  55.0830133  43.2584381  37.1424994  56.1575797  43.0854629  37.2015474
  54.4290133  43.1834381  35.9074994  54.9974133  42.9723908  35.0016952
  53.0450133  43.3794381  35.8354994  52.5328827  43.3093928  34.8758558
  52.3190133  43.6654381  36.9964994  51.2401580  43.8119104  36.9443720
  52.9800133  43.7634381  38.2264994  52.4184339  44.0031162  39.1294296
  56.1550133  45.2614381  41.2424994  57.3480133  45.1274381  40.9744994
  55.7290133  45.5444381  42.4764994  54.7497634  45.7628654  42.5925098
  56.5960133  45.6324381  43.6374994  57.5375068  46.1040334  43.3559197
  55.9370133  46.4734381  44.7554994  56.5892933  46.4460681  45.6283573
  55.8499232  47.5000452  44.3997000  54.6500133  45.9844381  45.1104994
  54.2792942  46.5339115  45.8049388  56.9490133  44.2584381  44.1224994
  56.3010133  43.2984381  43.7234994  57.9730133  44.1414381  44.9754994
  58.5158750  44.9621478  45.2031749  58.3890133  42.8624381  45.5324994
  57.6731166  42.1008485  45.2233514  59.7900133  42.4084381  45.1274994
  60.5151733  42.6662350  45.8993693  59.7420133  40.8734381  44.9584994
  59.0173537  40.6148771  44.1864142  60.7272026  40.5083547  44.6682983
  59.4475697  40.4126095  45.9013894  60.2340133  43.0954381  43.8164994
  60.2429492  44.1763010  43.9570611  61.2346312  42.7561077  43.5486965
  59.5380923  42.8391958  43.0176661  58.2580133  43.0164381  47.0224994
  58.7050133  44.0114381  47.5854994  57.5710133  42.0664381  47.6604994
  57.4373903  41.1756198  47.2036766  56.9580133  42.2724381  48.9524994
  57.5002201  43.0110478  49.5428948  55.4920133  42.7164381  48.7964994
  54.9317706  42.4530073  49.6936241  55.4450133  44.2364381  48.5924994
  56.0046926  44.5006077  47.6952401  54.4090899  44.5567800  48.4813936
  55.8878223  44.7332708  49.4557355  54.6820133  42.0454381  47.6744994
  55.0498378  41.0232712  47.5851638  53.6418184  42.0295838  47.9998340
  54.7800133  42.7384381  46.3254994  55.8199290  42.7542682  45.9992714
  54.1785886  42.1982076  45.5943780  54.4119114  43.7605822  46.4139424
  57.0780133  40.9764381  49.7364994  56.8250133  39.9124381  49.1844994
  57.4800133  41.0474381  51.0174994  57.7666063  41.9496524  51.3695975
  57.6350133  39.8864381  51.8844994  56.9260158  39.1068548  51.6058031
  59.0810133  39.3214381  51.7354994  59.2517285  39.1340824  50.6753799
  59.7705409  40.0904854  52.0836631  59.2990133  38.1194381  52.4714994
  60.2025874  37.8230693  52.3398963  57.3030133  40.0804381  53.3554994
  57.7500133  41.0384381  53.9794994  56.5370133  39.1324381  53.9234994
  56.2537300  38.4005025  53.2877949  56.0510133  39.0824381  55.2924994
  55.9094555  40.0944379  55.6718633  54.6910133  38.3324381  55.3584994
  54.0316437  38.6563996  54.5532790  54.9046811  37.2694187  55.2469825
  53.9710133  38.5514381  56.7024994  54.5160133  39.0944381  57.6674994
  52.6690133  38.1444381  56.7334994  52.1287367  38.2544589  57.5797242
  52.2513713  37.7349768  55.9100813  57.0740133  38.4164381  56.1784994
  57.4390133  37.2614381  55.9674994  57.5480133  39.1444381  57.1924994
  57.2219361  40.0953672  57.2900019  58.5500133  38.6684381  58.1114994
  59.2452577  38.0100951  57.5906165  59.3450133  39.8534381  58.7094994
  58.6430590  40.4663485  59.2749198  60.0913896  39.4382578  59.3867348
  60.0440133  40.7224381  57.6454994  60.4836293  40.0562647  56.9031708
  59.2867654  41.3459687  57.1702235  61.1410133  41.6164381  58.2444994
  60.7725439  42.1311698  59.1318440  62.0169227  41.0230546  58.5067556
  61.5420133  42.6404381  57.2274994  61.1330294  42.5895166  56.3054156
  62.4370133  43.6224381  57.4834994  63.1380133  43.6624381  58.6334994
  62.9998109  42.9449659  59.3308041  63.7984961  44.4097129  58.7930065
  62.6210133  44.5944381  56.5664994  62.0929887  44.5788392  55.7056587
  63.2859767  45.3334254  56.7448814  57.9910133  37.8264381  59.2304994
  58.6980133  36.9884381  59.7784994  56.7170133  38.0154381  59.5814994
  56.2008576  38.7456011  59.1118778  56.0380133  37.2444381  60.6144994
  56.6146327  37.2709132  61.5391119  54.6310133  37.8434381  60.8894994
  54.0184781  37.8231479  59.9881182  54.1513390  37.2496147  61.6675652
  54.7390133  39.2974381  61.3774994  55.7860133  39.7434381  61.8584994
  53.6190133  40.0614381  61.2134994  53.6212789  41.0261648  61.5124927
  52.7934346  39.6583286  60.7939481  55.8810133  35.7984381  60.2194994
  56.1020133  34.8894381  61.0184994  55.5100133  35.5714381  58.9584994
  55.3154468  36.3743773  58.3775246  55.2610133  34.2574381  58.4154994
  54.8513371  33.6068004  59.1881152  54.2670133  34.3324381  57.2654994
  54.6766604  34.9871752  56.4963390  53.9960133  32.9404381  56.6634994
  53.5858897  32.2852282  57.4320042  53.2820079  33.0307738  55.8448809
  54.9281371  32.5190580  56.2870878  52.9570133  34.9234381  57.8274994
  53.1499527  35.9174679  58.2309608  52.2175174  34.9929242  57.0297419
  52.5769218  34.2779757  58.6193388  56.5800133  33.6244381  58.0354994
  56.7400133  32.4114381  58.1224994  57.5760133  34.4444381  57.6824994
  57.3570427  35.4157721  57.5132024  58.9400133  34.0024381  57.4784994
  58.9004412  33.2020958  56.7395911  59.8370133  35.1324381  56.9334994
  59.8938084  35.9373658  57.6662788  60.8373584  34.7433816  56.7436443
  59.4147384  35.5163421  56.0048440  59.5730133  33.4564381  58.7384994
  60.1950133  32.4024381  58.7164994  59.3850133  34.1434381  59.8674994
  58.9313831  35.0416096  59.7802821  59.8700133  33.7414381  61.1754994
  60.9382106  33.5303408  61.1255816  59.6370133  34.8704381  62.2064994
  58.6215160  35.2419281  62.0691692  59.7332377  34.4369193  63.2019402
  60.6330133  36.0334381  62.0554994  61.5999596  35.6973079  62.4298419
  60.7163126  36.2676738  60.9942280  60.1950133  37.2904381  62.8244994
  59.1903950  37.5507305  62.4911994  60.1719054  37.0399935  63.8850855
  61.1330133  38.4844381  62.6014994  62.1314620  38.2156832  62.9464222
  61.1660008  38.7106764  61.5357475  60.6580133  39.6754381  63.3444994
  60.6277842  39.4661482  64.3321145  61.2895279  40.4469355  63.1830031
  59.7330156  39.9248954  63.0247351  59.2850133  32.4454381  61.6734994
  59.9660133  31.6674381  62.3374994  58.0180133  32.1884381  61.3424994
  57.5193721  32.8608312  60.7773944  57.2980133  31.0314381  61.8264994
  57.7443326  30.6770416  62.7556396  55.8150133  31.3994381  62.0974994
  55.3104302  30.5019266  62.4552261  55.7991612  32.1600867  62.8780520
  55.1450133  31.8914381  60.9424994  54.2355255  32.1025682  61.1657834
  57.4080133  29.8644381  60.8634994  56.8450133  28.8004381  61.1164994
  58.1680133  30.0354381  59.7764994  58.5593035  30.9527333  59.6166222
  58.4480133  28.9914381  58.8114994  58.0792202  28.0342246  59.1800548
  57.7450133  29.3084381  57.4644994  58.0837641  30.3089290  57.1954918
  58.0871060  28.5956020  56.7142079  56.1960133  29.2874381  57.5284994
  55.8697286  29.9733417  58.3102764  55.5810133  29.7114381  56.1864994
  55.9064950  29.0256818  55.4042598  54.4938085  29.6874337  56.2607301
  55.9056602  30.7225338  55.9407553  55.6590133  27.9054381  57.9144994
  56.0446999  27.6260540  58.8949533  54.5699138  27.9345841  57.9478755
  55.9798358  27.1710561  57.1756793  59.9360133  28.8594381  58.5714994
  60.3570133  28.0984381  57.7014994  60.7490133  29.5754381  59.3554994
  60.2805448  30.2190478  59.9771127  62.2050133  29.6004381  59.3044994
  62.5789764  30.4106173  59.9304869  62.8020133  28.2574381  59.8194994
  62.4874984  27.4324940  59.1802445  63.8893145  28.3328678  59.8058427
  62.3480133  27.9644381  61.2584994  61.9590133  28.8614381  62.0134994
  62.3810133  26.6514381  61.6354994  62.0955408  26.3897177  62.5682950
  62.6907289  25.9485377  60.9796731  62.7700133  29.9614381  57.9464994
  63.6990133  29.3244381  57.4504994  62.2230133  31.0144381  57.3404994
  61.4136220  31.4255359  57.7831997  62.6730133  31.5694381  56.0914994
  63.2472464  30.8252623  55.5396317  61.4650133  31.9974381  55.2314994
  60.9832785  31.0470353  55.0017922  60.7932436  32.6082888  55.8345640
  61.7940133  32.7394381  53.9154994  62.2633046  33.6878575  54.1769704
  62.7340133  31.9384381  52.9944994  62.2651764  30.9900217  52.7322073
  62.9285205  32.5102099  52.0871160  63.6743561  31.7475540  53.5116252
  60.4980133  33.1064381  53.1804994  59.8911170  33.7533086  53.8140093
  60.7400564  33.6286737  52.2548719  59.9409390  32.1984023  52.9497653
  63.5750133  32.7304381  56.4104994  63.2430133  33.5954381  57.2194994
  64.7500133  32.7434381  55.7824994  64.9215835  31.9729682  55.1523889
  65.7730133  33.7484381  55.9274994  65.8262635  34.0888937  56.9615949
  67.1480133  33.1444381  55.5324994  67.8770487  33.9541356  55.5640671
  67.4723392  32.3383491  56.1906280  67.1760133  32.5914381  54.1244994
  67.4050133  33.3444381  52.9924994  67.5491096  34.3433025  52.9524258
  67.4020133  32.4974381  51.9354994  67.5593660  32.9172365  50.9419661
  67.1980133  31.2544381  52.3274994  67.0630133  31.3004381  53.7054994
  66.8948680  30.3818157  54.2676037  65.4640133  34.9204381  55.0294994
  64.5010133  34.9044381  54.2654994  66.2840133  35.9664381  55.1154994
  67.0586580  35.9125245  55.7613464  66.1050133  37.1834381  54.3624994
  65.1311650  37.1881038  53.8729110  66.1810133  38.3954381  55.3254994
  67.1270056  38.4078189  55.8668353  66.0509126  39.3418651  54.8006664
  65.0850133  38.3244381  56.3694994  65.3840133  38.3204381  57.7444994
  66.4229846  38.4026081  58.0636962  64.3640133  38.2124381  58.6994994
  64.6108542  38.2070655  59.7611686  63.0280133  38.1114381  58.2904994
  62.2339225  38.0174659  59.0312347  62.7140133  38.1314381  56.9264994
  61.6753027  38.0551302  56.6050067  63.7340133  38.2494381  55.9754994
  63.4882108  38.2844439  54.9141533  67.1980133  37.2184381  53.3084994
  68.3600133  37.3734381  53.6824994  66.9190133  37.0294381  52.0014994
  65.5750133  36.7744381  51.4704994  64.9506706  37.6433140  51.6787087
  65.1630064  35.9017934  51.9772938  65.7730133  36.5394381  49.9744994
  65.7062314  37.4700162  49.4108829  65.0486163  35.8252989  49.5828930
  67.1890133  35.9604381  49.9314994  67.6168843  36.1566996  48.9483886
  67.2514720  34.8939931  50.1480489  67.9530133  36.7604381  51.0044994
  68.7478021  36.1857423  51.4800348  68.5260133  38.0354381  50.4364994
  68.3470133  38.2914381  49.2454994  69.2170133  38.8344381  51.2584994
  69.3043491  38.5112482  52.2114003  69.7600133  40.1444381  50.9204994
  70.0807119  40.6491725  51.8318143  70.9820133  40.0214381  49.9634994
  70.6909786  39.5182590  49.0414317  71.3486592  41.0212587  49.7310568
  72.1180133  39.2224381  50.6214994  72.1740133  39.0604381  51.8444994
  73.0420133  38.6924381  49.7654994  73.8153478  38.1555887  50.1313495
  72.9474712  38.8399354  48.7708100  68.6800133  41.0154381  50.3394994
  68.8600133  41.6344381  49.2904994  67.5230133  41.0164381  51.0044994
  67.5134129  40.4656708  51.8510587  66.2930133  41.6224381  50.5714994
  66.2027245  41.5440303  49.4880792  65.0720133  40.9024381  51.2274994
  64.1871248  41.4275421  50.8678646  65.0566437  39.8747833  50.8644711
  65.0780133  40.9024381  52.7644994  66.0530133  41.3694381  53.4074994
  64.0660133  40.3884381  53.3144994  66.3310133  43.1044381  50.8424994
  65.5900133  43.6484381  51.6604994  67.1650133  43.8054381  50.0794994
  67.7315467  43.2926490  49.4190551  67.2920133  45.2334381  50.1194994
  67.1129279  45.5959520  51.1317302  68.7200133  45.6514381  49.6894994
  68.8661487  45.3155819  48.6628815  68.7693165  46.7397205  49.7257020
  69.8220133  45.0584381  50.5844994  69.6019520  45.3404718  51.6141259
  69.7803630  43.9734537  50.4887071  71.2290133  45.5524381  50.2074994
  71.4133431  45.2742158  49.1698511  71.2368037  46.6385813  50.2987773
  72.3270133  44.9564381  51.0994994  72.1216562  45.2295829  52.1345457
  72.3062675  43.8712159  50.9996913  73.6650133  45.4624381  50.7114994
  73.6845830  46.4679728  50.8043248  74.3664878  45.0550568  51.3132253
  73.8556758  45.2090713  49.7525666  66.2800133  45.7924381  49.1344994
  66.2060133  47.0024381  48.9324994  65.4820133  44.9064381  48.5234994
  65.5741634  43.9371969  48.7921615  64.5180133  45.2444381  47.5144994
  64.4409848  46.3313376  47.4859475  65.0060133  44.7484381  46.1374994
  65.0794246  43.6609595  46.1475635  64.2985728  45.0572167  45.3678996
  65.9853046  45.1762147  45.9228021  63.1370133  44.6544381  47.7284994
  62.2080133  45.0074381  47.0034994  62.9620133  43.7724381  48.7204994
  63.7259133  43.5417994  49.3396618  61.6650133  43.1414381  48.9554994
  61.0567047  43.2217136  48.0546023  61.8210133  41.6334381  49.3184994
  62.1397643  41.6703372  50.3601978  60.8386260  41.1653412  49.2560453
  62.8420133  40.8044381  48.4944994  63.8368846  41.2294203  48.6276237
  62.8430133  39.3354381  48.9674994  61.8485231  38.9096085  48.8342433
  63.5634900  38.7649517  48.3813600  63.1177336  39.2927363  50.0214471
  62.6030133  40.8594381  46.9784994  62.6730703  41.8919661  46.6363340
  63.3551541  40.2567103  46.4694760  61.6109390  40.4687311  46.7521466
  60.9810133  43.8204381  50.1194994  59.9500133  43.3494381  50.5984994
  61.5630133  44.9204381  50.6054994  62.2814203  45.3766883  50.0616001
  61.2340133  45.4664381  51.8964994  60.3212469  45.0081286  52.2771687
  62.3890133  45.1794381  52.8974994  63.2900109  45.6211424  52.4718235
  62.1358080  45.6939416  53.8244693  62.6390133  43.6804381  53.1914994
  62.8605029  43.2018384  52.2375677  63.4837158  43.5495677  53.8678519
  61.4070133  43.0004381  53.8074994  60.5210133  43.6584381  54.3654994
  61.3820133  41.6374381  53.7474994  60.5982277  41.1322194  54.1354887
  62.1474052  41.1399060  53.3153670  60.9800133  46.9334381  51.8594994
  61.3930133  47.6214381  50.9284994  60.2170133  47.3964381  52.8594994
  60.0734396  46.7021071  53.5787980  59.5230133  48.6674381  52.9804994
  59.1738304  48.7026489  54.0124542  60.3910133  49.9154381  52.7104994
  60.7406589  49.8990661  51.6782301  59.7979345  50.8144073  52.8784637
  61.2481044  49.9151500  53.3839191  58.3080133  48.6694381  52.0954994
  57.3130133  49.3144381  52.4004994  58.3480133  47.8794381  51.0224994
  59.2723916  47.5607403  50.7694069  57.2470133  47.4884381  50.1984994
  56.7083746  48.3661248  49.8412410  57.7800133  46.7034381  48.9754994
  58.1610254  45.7602189  49.3669924  56.9141457  46.5101118  48.3422552
  58.8840133  47.3994381  48.1414994  59.6712925  47.7221406  48.8227889
  59.2940929  46.6890988  47.4236172  58.3640133  48.6254381  47.3764994
  58.2150133  48.5644381  46.1504994  58.1010133  49.7494381  48.1044994
  57.7574342  50.5785546  47.6412279  58.2511308  49.7471223  49.1032790
  56.2750133  46.6514381  51.0084994  55.0780133  46.9064381  50.9614994
  56.7750133  45.6814381  51.7924994  57.7743558  45.5459828  51.8478693
  55.9160133  44.8324381  52.6094994  54.8953083  45.2083736  52.5392647
  55.9270133  43.3584381  52.1774994  56.1647232  43.5032771  51.1236422
  56.7462659  42.8298939  52.6649073  54.6070133  42.5114381  52.3054994
  54.7166240  41.6979052  51.5883867  54.2620133  41.9304381  53.6934994
  54.1517828  42.7434590  54.4110961  53.3282015  41.3715727  53.6321339
  55.0621134  41.2654678  54.0186991  53.3600133  43.2194381  51.7594994
  53.5007258  43.4397660  50.7013146  52.4911554  42.5729758  51.8830861
  53.2010621  44.1492333  52.3056809  56.3940133  44.8474381  54.0184994
  57.4730133  45.3514381  54.3234994  55.5070133  44.3534381  54.8834994
  54.7381868  43.9930489  54.3365764  55.3810133  44.3584381  56.3184994
  54.4049013  43.9559268  56.5892192  56.4560133  43.7384381  57.2174994
  56.2322631  43.9503342  58.2630310  56.4680133  42.2244381  56.9954994
  56.6921688  42.0117329  55.9502188  57.2291258  41.7697416  57.6295811
  55.4913052  41.8118698  57.2483391  57.8660133  44.3724381  57.1174994
  58.4083561  43.8631785  56.3208692  57.7445540  45.4243066  56.8588108
  58.6540133  44.2564381  58.4264994  58.7762839  43.2047677  58.6856116
  59.6346213  44.7160165  58.3028270  58.1124802  44.7658941  59.2235541
  55.1070133  45.7684381  56.7814994  54.9670133  46.0364381  57.9734994
  55.0550133  46.6904381  55.8294994  54.9883138  46.3606181  54.8772026
  55.1000133  48.0884381  56.0544994  54.8902001  48.3015024  57.1026794
  56.5050133  48.6474381  55.7064994  56.7646763  48.3411701  54.6931513
  56.4740726  49.7356883  55.7599237  57.4820133  48.1564381  56.6144994
  58.3424939  48.5132668  56.3824513  54.0630133  48.7224381  55.1964994
  53.0110133  49.1224381  55.6904994  54.3410133  48.8314381  53.8954994
  55.1480004  48.3773506  53.4921685  53.5260133  49.6584381  53.0434994
  52.9616276  50.3630155  53.6543502  54.3960133  50.4594381  52.0384994
  55.0298804  49.7571303  51.4971348  53.7535519  50.9864422  51.3330847
  55.2950133  51.4874381  52.7474994  55.3320133  51.6164381  53.9744994
  56.0430133  52.2674381  51.9084994  56.6607176  52.9683263  52.2922922
  55.9741611  52.1388801  50.9090831  52.4930133  48.8694381  52.2824994
  51.6380133  49.4704381  51.6474994  52.4960133  47.5354381  52.4074994
  53.1275276  47.2019326  53.1216864  51.9050133  46.5574381  51.4914994
  52.4630589  45.6231801  51.5535185  50.4250133  46.2734381  51.8414994
  49.9816869  47.2197290  52.1514903  49.9404064  45.9275909  50.9284573
  50.2290133  45.2224381  52.9584994  49.1587662  45.0699125  53.0978113
  50.6840201  44.2979087  52.6030932  50.8640133  45.6234381  54.2904994
  50.1460133  46.2524381  55.1134994  52.0610133  45.2924381  54.5064994
  52.1560133  46.7934381  50.0054994  52.8270133  45.9994381  49.3624994
  51.6600133  47.9014381  49.4544994  50.7301020  48.2394206  49.6573099
  52.4430133  48.6044381  48.4684994  53.4852794  48.5750324  48.7861720
  52.3440133  48.0134381  47.0294994  52.8336476  47.0397822  47.0482552
  51.3422328  47.9078072  46.6131127  53.1290133  48.8754381  46.0584994
  54.5070133  49.0774381  46.2674994  55.0162773  48.5144807  47.0496945
  55.2220133  49.9894381  45.4834994  56.2867150  50.1419378  45.6602897
  54.5720133  50.7044381  44.4744994  55.1262061  51.4212876  43.8686142
  53.2090133  50.4994381  44.2424994  52.7023400  51.0586210  43.4559266
  52.4940133  49.5774381  45.0184994  51.4374270  49.3998207  44.8180563
  52.0030133  50.0434381  48.5004994  50.8880133  50.3624381  48.0894994
  52.8920133  50.9074381  48.9954994  53.6665145  50.4426045  49.4473589
  52.7900133  52.3494381  49.1164994  53.5054166  52.7047479  49.8581545
  53.0940133  53.0454381  47.7594994  52.4442363  52.5934862  47.0100806
  52.8717483  54.1096355  47.8381262  54.5610133  52.8584381  47.3444994
  55.3540133  52.2464381  48.1104994  54.9090133  53.3624381  46.2434994
  51.5000133  52.8204381  49.7614994  50.8720133  53.7784381  49.3124994
  51.1070133  52.1534381  50.8454994  51.6027016  51.2957594  51.0424253
  50.0230133  52.5314381  51.7164994  49.6435125  53.5091992  51.4197480
  48.8670133  51.5114381  51.6454994  49.2797903  50.5213799  51.8391468
  48.1478499  51.7634758  52.4248459  48.1640133  51.5144381  50.2804994
  48.0119776  52.5504101  49.9776002  48.8147421  51.0177727  49.5607927
  46.8110133  50.7924381  50.3294994  47.0193202  49.7335795  50.4828804
  46.2707415  51.1844578  51.1911991  45.9570133  50.9674381  49.0684994
  46.5320703  50.6099011  48.2143464  45.0571091  50.3623900  49.1789004
  45.5760133  52.3844381  48.8494994  46.4097371  52.9451927  48.7467447
  45.0161605  52.4569339  48.0119977  45.0427786  52.7158061  49.6406726
  50.5420133  52.6494381  53.1604994  51.7660133  52.4634381  53.3904994
  49.7060133  52.9544381  54.0534994  53.1130133  51.6964381  38.1374994
  52.0900133  50.9974381  38.7764994  50.9340133  50.6234381  38.0754994
  49.8950133  49.9194381  38.7004994  48.7500133  49.5544381  37.9884994
  48.6130133  49.8824381  36.6334994  47.4700133  49.5234381  35.9054994
  47.3510133  49.8584381  34.5574994  48.3740133  50.5574381  33.9174994
  49.5300133  50.9324381  34.6194994  50.5680133  51.6364381  33.9934994
  51.7140133  52.0014381  34.7054994  51.8510133  51.6734381  36.0604994
  52.9940133  52.0324381  36.7894994  50.8130133  50.9624381  36.7084994
  49.6510133  50.5934381  35.9864994  53.9600133  51.9654381  38.6624994
  52.1840133  50.7524381  39.7744994  49.9770133  49.6684381  39.6984994
  47.9960133  49.0364381  38.4664994  46.7090133  49.0054381  36.3724994
  46.5050133  49.5884381  34.0324994  48.2800133  50.8014381  32.9194994
  50.4850133  51.8884381  32.9964994  52.4680133  52.5184381  34.2274994
  53.7550133  52.5504381  36.3234994  59.5776520  40.1045300  31.0546650
  36.9884140  46.8117730  57.1735830  70.6581020  40.6091110  39.6446630
  30.1936120  25.7034590  27.9057170  28.0300600  36.1980160  56.4998890
  55.1025460  50.1647960  23.2912730  68.3484660  17.9948010  37.7038280
  67.1790130  42.7151930  63.3840430  84.7371830  79.5621450  76.2048560
  84.6565880  78.6476060  75.9340270  84.3236250  80.0588520  75.4988270
  82.8689870  81.3400470  78.0857830  82.0931970  80.8600910  78.3756400
  83.5202800  80.6606120  77.9113990  75.2947650  76.6122170  72.7475980
  74.4064350  76.9538140  72.6455860  75.5788840  76.4122490  71.8556810
  73.2580660  79.2127820  78.6315680  73.8296770  78.4450020  78.6319320
  73.2582200  79.5116580  77.7222290  82.3098860  84.0157660  78.0927990
  82.2407140  83.0747600  77.9317120  83.0718720  84.1059070  78.6650560
  83.3404030  76.8228040  78.3196920  83.7168850  75.9499920  78.2070590
  83.2423540  77.1586740  77.4287360  77.4709040  75.1953670  73.7814360
  77.5775790  76.0957400  74.0883120  76.5601400  75.1471640  73.4909010
  79.3116770  78.1640040  78.1139540  79.8194990  78.6621010  78.7544560
  79.8430010  77.3875240  77.9378900  83.9823960  82.9157910  73.8792860
  83.3641230  83.3807360  73.3155580  84.4947210  83.6085390  74.2962370
  80.9596090  72.0030830  76.7118000  81.2671070  71.4477720  75.9953500
  80.0296790  72.1375290  76.5290990  83.3476850  80.0679660  73.4478120
  82.4206130  80.0017040  73.6766590  83.5001670  81.0059790  73.3333360
  83.3345930  76.3396660  70.4445280  82.3949600  76.5010620  70.5297740
  83.6529190  77.0582340  69.8981270  87.3774140  81.6299960  73.9513370
  86.7586560  81.2919510  73.3039670  87.3598590  80.9859720  74.6592560
  78.9533490  80.5944400  76.2297850  78.5490490  79.8821650  75.7343750
  79.0396610  80.2497640  77.1185890  85.5538840  80.8686770  70.9586120
  85.9932120  80.0309200  70.8123940  86.2667260  81.5016170  71.0450260
  75.6538120  79.4889380  73.7304500  75.5335720  80.2151470  73.1185770
  75.3439010  78.7192290  73.2532410  78.1201780  72.8324450  77.1128170
  77.6769930  73.6133990  76.7812690  78.6786770  73.1554340  77.8199110
  81.2360600  72.4535150  71.9934000  80.6114780  72.4495020  72.7187310
  81.1490720  71.5866110  71.5969970  77.9116000  77.9558020  74.8409420
  77.6856920  77.7395190  75.7456040  77.1308530  78.3886480  74.4955390
  85.1413760  77.9621390  73.4400070  84.5422650  78.6857190  73.2563690
  85.6893370  77.8998170  72.6576520  83.7478630  76.5984930  75.4703350
  84.1408200  76.9157130  74.6572040  84.1095480  75.7196810  75.5847870
  72.7842800  73.1885730  77.6933550  72.4955850  73.7588590  78.4058530
  73.5288560  72.7090180  78.0564780  72.9713030  77.1305850  68.9036270
  72.8887700  78.0736610  69.0451260  72.6196090  76.9880760  68.0248620
  80.7711160  75.8644880  77.9706620  80.7747220  75.4234830  77.1211160
  81.6662280  76.1862210  78.0778440  76.6213540  75.7471370  76.9300830
  76.2813590  76.2246600  77.6867880  75.8590860  75.2936490  76.5701930
  80.8331310  76.8656960  70.9613380  80.9544130  76.8243440  71.9099200
  80.4479820  77.7281110  70.8060110  79.8452810  79.1758100  70.3596680
  79.2769710  78.7276350  69.7332590  80.5541810  79.5350880  69.8261830
  73.9359620  74.6690350  75.8465500  73.6506540  74.3046020  76.6844120
  73.8738480  73.9370810  75.2328640  77.3900290  83.1716290  72.6323090
  76.6162550  82.6313910  72.4721810  78.1194920  82.6522900  72.2940850
  83.6098210  73.5619610  72.5678870  82.7962820  73.0632780  72.4924180
  83.4160160  74.4017860  72.1515220  86.3246600  77.9339260  70.8641030
  87.2126220  78.2456490  70.6892370  86.2951690  77.0611510  70.4721610
  77.4337690  82.8396670  76.2701900  77.9516360  82.0364930  76.2158790
  76.9821710  82.7775810  77.1118730  85.2034600  83.4278790  76.9074710
  85.5558420  82.8306920  76.2476080  84.3196930  83.1023020  77.0782960
  73.4290280  79.8049300  69.8062200  74.2985130  80.0874100  70.0898120
  72.9380600  80.6185170  69.6911010  80.5925090  81.1922510  73.9270480
  81.0487870  82.0027760  74.1530670  80.2413300  80.8745650  74.7588970
  76.4936870  71.5360160  74.3993000  76.3651500  71.5278060  75.3477920
  75.6698890  71.8743250  74.0484010  75.4136790  81.6222770  71.9344260
  74.8064740  82.3621670  71.9439560  75.8886140  81.7122130  71.1082460
  80.3215640  77.0216480  73.8346590  79.6131790  77.4902820  74.2760200
  80.6060120  76.3638490  74.4691780  84.3531070  73.7467140  75.2742380
  84.2298850  73.7653270  74.3251890  85.3015630  73.7946080  75.3940780
  78.5250660  75.3301560  71.2097300  79.3741190  75.7671710  71.1437490
  78.1581930  75.6421820  72.0369360  77.4242080  81.5833920  69.6832830
  78.1905350  81.4715280  70.2458260  77.5016770  80.8871890  69.0309600
  76.1188840  79.0158990  70.3665720  76.1992430  78.0686500  70.4783120
  77.0108590  79.3465870  70.4726380  80.5483260  83.5588100  69.1568180
  80.4433900  82.9440450  69.8829560  80.3807480  83.0353990  68.3731190
  83.7885990  82.6208130  69.7610170  83.2396090  83.0677430  70.4052910
  84.4105250  82.1157380  70.2847840  79.4561110  81.5799050  71.6575470
  79.8777530  81.4138920  72.5006860  79.5811950  80.7699280  71.1630610
  81.9688750  80.6036660  68.9052570  82.4894410  79.8885680  68.5393720
  82.6157150  81.2422530  69.2053080  78.3520010  77.6532280  68.6033630
  78.1509070  76.7899640  68.9646970  78.1812060  77.5665640  67.6655230
  85.8308320  72.4640510  71.1320510  86.1110610  71.6208410  71.4879930
  85.0574050  72.6963620  71.6459260  77.1502810  74.7532900  68.5911510
  77.4528710  74.7600330  67.6830660  77.8897400  74.4030760  69.0879170
  80.3687740  73.6967520  69.5767710  80.0209740  73.0191510  68.9970160
  80.5700510  73.2357030  70.3911100  73.7093380  80.2255170  75.9732080
  73.0542220  79.9566810  75.3291780  74.5471330  80.1159650  75.5234060
  86.6583820  75.0196460  70.1950570  87.0768700  74.8327440  69.3547230
  86.3519880  74.1675510  70.5053500  72.9231460  77.4354100  71.9157410
  72.0195540  77.6984300  71.7409070  73.4072080  77.7065270  71.1357370
  75.4658670  76.4919640  69.8251790  76.1750370  76.0702860  69.3399070
  74.7498610  76.5594870  69.1935140  75.1132830  72.5458970  68.8654440
  75.8360960  73.0867910  69.1835660  75.3857350  72.2722390  67.9895980
  74.5379670  72.5852230  72.4590010  75.2959030  72.6981110  71.8854040
  74.0756840  73.4221430  72.4133440  81.0793480  74.6991500  75.4492320
  80.2667990  74.3248390  75.1088200  81.5835120  73.9436580  75.7513510
  85.5818460  71.3633950  76.6875390  86.1847830  71.9354160  77.1623910
  84.8411450  71.9273390  76.4649290  76.9104820  73.1116280  70.9991980
  77.4397580  72.3246080  70.8699930  77.5433140  73.7907470  71.2327510
  79.1042660  72.8491420  74.0537370  78.4745400  72.1478730  74.2207500
  78.5647800  73.6095550  73.8370530  84.7371830  79.5621450  57.4305070
  84.6565880  78.6476060  57.1596780  84.3236250  80.0588520  56.7244780
  82.8689870  81.3400470  59.3114340  82.0931970  80.8600910  59.6012910
  83.5202800  80.6606120  59.1370500  76.8855700  81.6520280  60.1890100
  76.0540580  81.3968990  60.5886610  77.4936680  81.7231050  60.9248020
  75.2947650  76.6122170  53.9732490  74.4064350  76.9538140  53.8712370
  75.5788840  76.4122490  53.0813320  73.2580660  79.2127820  59.8572190
  73.8296770  78.4450020  59.8575830  73.2582200  79.5116580  58.9478800
  82.3098860  84.0157660  59.3184500  82.2407140  83.0747600  59.1573630
  83.0718720  84.1059070  59.8907070  74.5005530  74.6212180  61.6441120
  74.3208370  73.7237930  61.9243880  74.0985610  75.1684050  62.3188070
  83.3404030  76.8228040  59.5453430  83.7168850  75.9499920  59.4327100
  83.2423540  77.1586740  58.6543870  77.4709040  75.1953670  55.0070870
  77.5775790  76.0957400  55.3139630  76.5601400  75.1471640  54.7165520
  75.1192200  77.1172680  60.2523460  75.8002310  77.3811050  60.8710860
  74.8040250  76.2773550  60.5861470  79.3116770  78.1640040  59.3396050
  79.8194990  78.6621010  59.9801070  79.8430010  77.3875240  59.1635410
  77.5952870  72.8038600  63.6059470  77.5971310  73.3210990  62.8005370
  76.7657180  72.3268780  63.5829400  83.9823960  82.9157910  55.1049370
  83.3641230  83.3807360  54.5412090  84.4947210  83.6085390  55.5218880
  78.8455720  82.4433780  61.7832970  78.5125100  83.0702700  62.4254040
  79.0222400  82.9695660  61.0034640  77.2768200  74.5148560  61.6129920
  77.6185010  75.3590610  61.3183790  76.3384010  74.6632300  61.7295260
  80.9596090  72.0030830  57.9374510  81.2671070  71.4477720  57.2210010
  80.0296790  72.1375290  57.7547500  85.9096590  82.6227960  61.5564580
  86.3265380  82.4088070  60.7218040  86.6336410  82.8800750  62.1273200
  83.3476850  80.0679660  54.6734630  82.4206130  80.0017040  54.9023100
  83.5001670  81.0059790  54.5589870  83.3345930  76.3396660  51.6701790
  82.3949600  76.5010620  51.7554250  83.6529190  77.0582340  51.1237780
  87.3774140  81.6299960  55.1769880  86.7586560  81.2919510  54.5296180
  87.3598590  80.9859720  55.8849070  86.8200700  77.8084500  62.5935690
  86.4071880  78.6338210  62.8475680  86.0876650  77.2229540  62.4012050
  78.9533490  80.5944400  57.4554360  78.5490490  79.8821650  56.9600260
  79.0396610  80.2497640  58.3442400  77.6662110  77.3687610  61.2353400
  78.2176700  77.4782950  60.4606650  78.1805620  77.7425210  61.9508630
  85.5538840  80.8686770  52.1842630  85.9932120  80.0309200  52.0380450
  86.2667260  81.5016170  52.2706770  77.3404840  80.8906970  64.8458740
  77.2012610  81.7629770  65.2146140  76.4586200  80.5479780  64.7006680
  75.6538120  79.4889380  54.9561010  75.5335720  80.2151470  54.3442280
  75.3439010  78.7192290  54.4788920  73.2923490  82.6604520  60.7629650
  73.3703910  82.7953290  59.8185370  73.9065170  81.9520410  60.9557770
  73.3483010  83.7018690  63.3024110  73.5114050  83.2324050  62.4843480
  73.8135460  83.1942250  63.9672950  78.1201780  72.8324450  58.3384680
  77.6769930  73.6133990  58.0069200  78.6786770  73.1554340  59.0455620
  82.4071590  75.6992970  63.9420000  81.9450960  75.9075990  64.7539940
  82.0049700  74.8852320  63.6390670  87.4076100  76.9201920  65.0716660
  86.5569690  76.6207670  65.3925730  87.2477890  77.1643930  64.1600480
  84.5025810  78.4203670  67.1715450  84.8279220  77.5867420  66.8317680
  85.2906140  78.9432190  67.3193780  81.2360600  72.4535150  53.2190510
  80.6114780  72.4495020  53.9443820  81.1490720  71.5866110  52.8226480
  80.1577680  73.3771780  60.1974280  80.4550010  74.2834610  60.1166300
  80.7063240  72.8890560  59.5833850  77.9116000  77.9558020  56.0665930
  77.6856920  77.7395190  56.9712550  77.1308530  78.3886480  55.7211900
  85.1413760  77.9621390  54.6656580  84.5422650  78.6857190  54.4820200
  85.6893370  77.8998170  53.8833030  80.3515210  78.8543600  66.7326200
  80.2558810  77.9138330  66.5826600  81.1947190  79.0758670  66.3374270
  83.7478630  76.5984930  56.6959860  84.1408200  76.9157130  55.8828550
  84.1095480  75.7196810  56.8104380  75.4825750  75.2657270  64.8859980
  75.0889140  76.1132480  65.0932760  74.7944150  74.6283640  65.0768620
  82.0570800  75.3492240  67.9556720  81.3669120  75.1564440  68.5902810
  82.8003100  75.6326880  68.4881020  72.7842800  73.1885730  58.9190060
  72.4955850  73.7588590  59.6315040  73.5288560  72.7090180  59.2821290
  72.9713030  77.1305850  50.1292780  72.8887700  78.0736610  50.2707770
  72.6196090  76.9880760  49.2505130  84.3333770  79.1890680  60.7910640
  83.6014890  79.6977490  61.1400740  83.9358110  78.3720660  60.4899420
  80.7711160  75.8644880  59.1963130  80.7747220  75.4234830  58.3467670
  81.6662280  76.1862210  59.3034950  76.6213540  75.7471370  58.1557340
  76.2813590  76.2246600  58.9124390  75.8590860  75.2936490  57.7958440
  80.8331310  76.8656960  52.1869890  80.9544130  76.8243440  53.1355710
  80.4479820  77.7281110  52.0316620  84.7959680  74.6424360  60.2033580
  84.8132420  75.0933010  61.0475430  84.5475260  73.7430000  60.4167020
  79.8452810  79.1758100  51.5853190  79.2769710  78.7276350  50.9589100
  80.5541810  79.5350880  51.0518340  74.9221990  83.0770120  65.4619920
  74.5376780  82.4363790  66.0602880  75.2334180  83.7806240  66.0314650
  81.0719130  79.9246660  60.9428540  81.4389260  79.4505230  61.6889880
  80.8824190  80.7988230  61.2836880  73.9359620  74.6690350  57.0722010
  73.6506540  74.3046020  57.9100630  73.8738480  73.9370810  56.4585150
  78.8618500  78.9655300  63.2612750  78.5575570  79.8447280  63.4863110
  79.8164960  79.0255090  63.2970190  77.3900290  83.1716290  53.8579600
  76.6162550  82.6313910  53.6978320  78.1194920  82.6522900  53.5197360
  83.6098210  73.5619610  53.7935380  82.7962820  73.0632780  53.7180690
  83.4160160  74.4017860  53.3771730  83.5307070  82.2390710  65.5374990
  83.4644380  81.3186380  65.2832580  82.9012210  82.3366150  66.2519630
  86.3246600  77.9339260  52.0897540  87.2126220  78.2456490  51.9148880
  86.2951690  77.0611510  51.6978120  77.4337690  82.8396670  57.4958410
  77.9516360  82.0364930  57.4415300  76.9821710  82.7775810  58.3375240
  74.9182230  79.8058040  64.4084110  74.5597170  80.4711890  64.9957450
  74.6236790  78.9741590  64.7796730  78.1195350  80.2642280  67.2923660
  77.8195490  80.4099460  66.3951480  78.8906590  79.7047570  67.1997050
  85.2034600  83.4278790  58.1331220  85.5558420  82.8306920  57.4732590
  84.3196930  83.1023020  58.3039470  73.4290280  79.8049300  51.0318710
  74.2985130  80.0874100  51.3154630  72.9380600  80.6185170  50.9167520
  80.5925090  81.1922510  55.1526990  81.0487870  82.0027760  55.3787180
  80.2413300  80.8745650  55.9845480  76.4936870  71.5360160  55.6249510
  76.3651500  71.5278060  56.5734430  75.6698890  71.8743250  55.2740520
  73.4930800  73.2951280  65.0856210  72.7789320  73.4948200  65.6908820
  73.9125840  72.5190850  65.4571010  75.4136790  81.6222770  53.1600770
  74.8064740  82.3621670  53.1696070  75.8886140  81.7122130  52.3338970
  84.9869580  75.7873590  62.8357660  85.3550400  74.9668800  63.1637230
  84.1267780  75.8475480  63.2513310  80.3215640  77.0216480  55.0603100
  79.6131790  77.4902820  55.5016710  80.6060120  76.3638490  55.6948290
  81.9471570  78.4413180  63.0595630  82.4456820  78.9159000  63.7247480
  82.0894520  77.5176700  63.2665660  84.3531070  73.7467140  56.4998890
  84.2298850  73.7653270  55.5508400  85.3015630  73.7946080  56.6197290
  78.5250660  75.3301560  52.4353810  79.3741190  75.7671710  52.3694000
  78.1581930  75.6421820  53.2625870  77.4242080  81.5833920  50.9089340
  78.1905350  81.4715280  51.4714770  77.5016770  80.8871890  50.2566110
  76.1188840  79.0158990  51.5922230  76.1992430  78.0686500  51.7039630
  77.0108590  79.3465870  51.6982890  73.6459640  80.8373910  66.8278400
  74.1498660  80.2581190  67.3994630  72.9067060  81.1214140  67.3654770
  80.5483260  83.5588100  50.3824690  80.4433900  82.9440450  51.1086070
  80.3807480  83.0353990  49.5987700  80.6997580  82.2444900  66.3613920
  79.9343250  82.8129900  66.2768590  80.8813540  81.9521110  65.4682150
  83.7885990  82.6208130  50.9866680  83.2396090  83.0677430  51.6309420
  84.4105250  82.1157380  51.5104350  75.6782720  78.9803500  67.7228470
  75.7188060  78.6817370  68.6313700  76.5328220  79.3811110  67.5635990
  79.4561110  81.5799050  52.8831980  79.8777530  81.4138920  53.7263370
  79.5811950  80.7699280  52.3887120  77.6188530  77.5595600  65.6902960
  77.0884990  77.0686550  65.0626300  78.2876600  77.9879800  65.1560890
  81.9688750  80.6036660  50.1309080  82.4894410  79.8885680  49.7650230
  82.6157150  81.2422530  50.4309590  86.5166590  82.0265060  65.4544150
  86.9307610  82.1810140  66.3034570  85.5817590  82.1520280  65.6169930
  78.1060830  74.5257970  65.7700250  78.0117700  73.9078720  65.0451120
  77.5258220  75.2524260  65.5430160  80.8722270  73.0831210  62.8027640
  80.4239570  73.1055470  61.9573190  80.2387470  72.6850230  63.3997940
  81.2781820  81.9785540  63.4240080  81.6969930  82.8218270  63.2516320
  80.3590450  82.1157580  63.1946860  83.6145720  79.7101720  64.8077920
  83.7341930  79.1142860  65.5472760  84.4739720  79.7471410  64.3879220
  85.9533620  80.2638910  63.3840430  85.4268840  80.7881530  62.7805570
  86.2964960  80.8966300  64.0150160  78.3520010  77.6532280  49.8290140
  78.1509070  76.7899640  50.1903480  78.1812060  77.5665640  48.8911740
  80.3814490  76.2523070  66.0653740  80.9714180  75.9438920  66.7531560
  79.5634730  75.7802820  66.2213640  85.2007920  75.8688880  66.2986760
  84.5123440  75.2070420  66.2336750  85.9213940  75.4227150  66.7435220
  85.8308320  72.4640510  52.3577020  86.1110610  71.6208410  52.7136440
  85.0574050  72.6963620  52.8715770  77.1502810  74.7532900  49.8168020
  77.4528710  74.7600330  48.9087170  77.8897400  74.4030760  50.3135680
  80.3687740  73.6967520  50.8024220  80.0209740  73.0191510  50.2226670
  80.5700510  73.2357030  51.6167610  73.7093380  80.2255170  57.1988590
  73.0542220  79.9566810  56.5548290  74.5471330  80.1159650  56.7490570
  86.6583820  75.0196460  51.4207080  87.0768700  74.8327440  50.5803740
  86.3519880  74.1675510  51.7310010  74.7469310  80.6107740  61.7391930
  75.1142350  80.5235140  62.6187950  74.1780130  79.8474290  61.6398790
  74.2985310  77.5216830  65.6450350  73.4041360  77.4883590  65.9844060
  74.8382860  77.7203620  66.4101600  72.9231460  77.4354100  53.1413920
  72.0195540  77.6984300  52.9665580  73.4072080  77.7065270  52.3613880
  75.4658670  76.4919640  51.0508300  76.1750370  76.0702860  50.5655580
  74.7498610  76.5594870  50.4191650  75.1132830  72.5458970  50.0910950
  75.8360960  73.0867910  50.4092170  75.3857350  72.2722390  49.2152490
  74.8025020  71.7965160  59.9933570  75.4501210  71.2462540  59.5528730
  75.2226860  72.0508310  60.8149380  74.5557020  71.9520830  62.7358890
  74.2071840  72.4084650  63.5017070  74.2244720  71.0577960  62.8181320
  82.0681840  73.1432710  66.2578310  82.0070730  73.7354540  67.0073720
  83.0082220  73.0358670  66.1128570  84.7056400  72.8002770  65.8970600
  85.3196810  73.1182060  65.2351680  85.2505960  72.3151360  66.5166460
  75.2277660  71.4797030  66.0109660  75.7760650  71.2985080  65.2475770
  75.2932970  70.6891140  66.5465970  85.4464440  71.3634910  62.2239890
  84.5724280  71.6970020  62.0212820  85.3375190  70.8908090  63.0491760
  86.3536420  73.5705780  63.6081610  86.0249780  72.7557540  63.2283340
  87.3018720  73.5275590  63.4847300  83.1939260  72.2804750  61.1632800
  82.4111050  72.7550250  61.4429560  82.9002190  71.3759580  61.0545980
  74.5379670  72.5852230  53.6846520  75.2959030  72.6981110  53.1110550
  74.0756840  73.4221430  53.6389950  81.0793480  74.6991500  56.6748830
  80.2667990  74.3248390  56.3344710  81.5835120  73.9436580  56.9770020
  85.5818460  71.3633950  57.9131900  86.1847830  71.9354160  58.3880420
  84.8411450  71.9273390  57.6905800  76.9104820  73.1116280  52.2248490
  77.4397580  72.3246080  52.0956440  77.5433140  73.7907470  52.4584020
  79.1042660  72.8491420  55.2793880  78.4745400  72.1478730  55.4464010
  78.5647800  73.6095550  55.0627040  79.2298220  72.1275400  67.7146370
  78.9482490  72.6309000  66.9507190  79.6117920  71.3297150  67.3488500
  85.8313680  71.5428980  68.2926840  85.7179130  71.8623590  69.1878360
  86.6483420  71.9441490  67.9964120  84.7371830  79.5621450  38.6561580
  84.6565880  78.6476060  38.3853290  84.3236250  80.0588520  37.9501290
  82.8689870  81.3400470  40.5370850  82.0931970  80.8600910  40.8269420
  83.5202800  80.6606120  40.3627010  76.8855700  81.6520280  41.4146610
  76.0540580  81.3968990  41.8143120  77.4936680  81.7231050  42.1504530
  75.2947650  76.6122170  35.1989000  74.4064350  76.9538140  35.0968880
  75.5788840  76.4122490  34.3069830  73.2580660  79.2127820  41.0828700
  73.8296770  78.4450020  41.0832340  73.2582200  79.5116580  40.1735310
  82.3098860  84.0157660  40.5441010  82.2407140  83.0747600  40.3830140
  83.0718720  84.1059070  41.1163580  74.5005530  74.6212180  42.8697630
  74.3208370  73.7237930  43.1500390  74.0985610  75.1684050  43.5444580
  83.3404030  76.8228040  40.7709940  83.7168850  75.9499920  40.6583610
  83.2423540  77.1586740  39.8800380  77.4709040  75.1953670  36.2327380
  77.5775790  76.0957400  36.5396140  76.5601400  75.1471640  35.9422030
  75.1192200  77.1172680  41.4779970  75.8002310  77.3811050  42.0967370
  74.8040250  76.2773550  41.8117980  79.3116770  78.1640040  40.5652560
  79.8194990  78.6621010  41.2057580  79.8430010  77.3875240  40.3891920
  77.5952870  72.8038600  44.8315980  77.5971310  73.3210990  44.0261880
  76.7657180  72.3268780  44.8085910  83.9823960  82.9157910  36.3305880
  83.3641230  83.3807360  35.7668600  84.4947210  83.6085390  36.7475390
  78.8455720  82.4433780  43.0089480  78.5125100  83.0702700  43.6510550
  79.0222400  82.9695660  42.2291150  77.2768200  74.5148560  42.8386430
  77.6185010  75.3590610  42.5440300  76.3384010  74.6632300  42.9551770
  80.9596090  72.0030830  39.1631020  81.2671070  71.4477720  38.4466520
  80.0296790  72.1375290  38.9804010  85.9096590  82.6227960  42.7821090
  86.3265380  82.4088070  41.9474550  86.6336410  82.8800750  43.3529710
  83.3476850  80.0679660  35.8991140  82.4206130  80.0017040  36.1279610
  83.5001670  81.0059790  35.7846380  83.3345930  76.3396660  32.8958300
  82.3949600  76.5010620  32.9810760  83.6529190  77.0582340  32.3494290
  87.3774140  81.6299960  36.4026390  86.7586560  81.2919510  35.7552690
  87.3598590  80.9859720  37.1105580  86.8200700  77.8084500  43.8192200
  86.4071880  78.6338210  44.0732190  86.0876650  77.2229540  43.6268560
  78.9533490  80.5944400  38.6810870  78.5490490  79.8821650  38.1856770
  79.0396610  80.2497640  39.5698910  77.6662110  77.3687610  42.4609910
  78.2176700  77.4782950  41.6863160  78.1805620  77.7425210  43.1765140
  85.5538840  80.8686770  33.4099140  85.9932120  80.0309200  33.2636960
  86.2667260  81.5016170  33.4963280  77.3404840  80.8906970  46.0715250
  77.2012610  81.7629770  46.4402650  76.4586200  80.5479780  45.9263190
  75.6538120  79.4889380  36.1817520  75.5335720  80.2151470  35.5698790
  75.3439010  78.7192290  35.7045430  73.2923490  82.6604520  41.9886160
  73.3703910  82.7953290  41.0441880  73.9065170  81.9520410  42.1814280
  73.3483010  83.7018690  44.5280620  73.5114050  83.2324050  43.7099990
  73.8135460  83.1942250  45.1929460  78.1201780  72.8324450  39.5641190
  77.6769930  73.6133990  39.2325710  78.6786770  73.1554340  40.2712130
  82.4071590  75.6992970  45.1676510  81.9450960  75.9075990  45.9796450
  82.0049700  74.8852320  44.8647180  87.4076100  76.9201920  46.2973170
  86.5569690  76.6207670  46.6182240  87.2477890  77.1643930  45.3856990
  84.5025810  78.4203670  48.3971960  84.8279220  77.5867420  48.0574190
  85.2906140  78.9432190  48.5450290  81.2360600  72.4535150  34.4447020
  80.6114780  72.4495020  35.1700330  81.1490720  71.5866110  34.0482990
  80.1577680  73.3771780  41.4230790  80.4550010  74.2834610  41.3422810
  80.7063240  72.8890560  40.8090360  77.9116000  77.9558020  37.2922440
  77.6856920  77.7395190  38.1969060  77.1308530  78.3886480  36.9468410
  85.1413760  77.9621390  35.8913090  84.5422650  78.6857190  35.7076710
  85.6893370  77.8998170  35.1089540  80.3515210  78.8543600  47.9582710
  80.2558810  77.9138330  47.8083110  81.1947190  79.0758670  47.5630780
  83.7478630  76.5984930  37.9216370  84.1408200  76.9157130  37.1085060
  84.1095480  75.7196810  38.0360890  75.4825750  75.2657270  46.1116490
  75.0889140  76.1132480  46.3189270  74.7944150  74.6283640  46.3025130
  82.0570800  75.3492240  49.1813230  81.3669120  75.1564440  49.8159320
  82.8003100  75.6326880  49.7137530  72.7842800  73.1885730  40.1446570
  72.4955850  73.7588590  40.8571550  73.5288560  72.7090180  40.5077800
  72.9713030  77.1305850  31.3549290  72.8887700  78.0736610  31.4964280
  72.6196090  76.9880760  30.4761640  84.3333770  79.1890680  42.0167150
  83.6014890  79.6977490  42.3657250  83.9358110  78.3720660  41.7155930
  80.7711160  75.8644880  40.4219640  80.7747220  75.4234830  39.5724180
  81.6662280  76.1862210  40.5291460  76.6213540  75.7471370  39.3813850
  76.2813590  76.2246600  40.1380900  75.8590860  75.2936490  39.0214950
  80.8331310  76.8656960  33.4126400  80.9544130  76.8243440  34.3612220
  80.4479820  77.7281110  33.2573130  84.7959680  74.6424360  41.4290090
  84.8132420  75.0933010  42.2731940  84.5475260  73.7430000  41.6423530
  79.8452810  79.1758100  32.8109700  79.2769710  78.7276350  32.1845610
  80.5541810  79.5350880  32.2774850  74.9221990  83.0770120  46.6876430
  74.5376780  82.4363790  47.2859390  75.2334180  83.7806240  47.2571160
  81.0719130  79.9246660  42.1685050  81.4389260  79.4505230  42.9146390
  80.8824190  80.7988230  42.5093390  73.9359620  74.6690350  38.2978520
  73.6506540  74.3046020  39.1357140  73.8738480  73.9370810  37.6841660
  78.8618500  78.9655300  44.4869260  78.5575570  79.8447280  44.7119620
  79.8164960  79.0255090  44.5226700  77.3900290  83.1716290  35.0836110
  76.6162550  82.6313910  34.9234830  78.1194920  82.6522900  34.7453870
  83.6098210  73.5619610  35.0191890  82.7962820  73.0632780  34.9437200
  83.4160160  74.4017860  34.6028240  83.5307070  82.2390710  46.7631500
  83.4644380  81.3186380  46.5089090  82.9012210  82.3366150  47.4776140
  86.3246600  77.9339260  33.3154050  87.2126220  78.2456490  33.1405390
  86.2951690  77.0611510  32.9234630  77.4337690  82.8396670  38.7214920
  77.9516360  82.0364930  38.6671810  76.9821710  82.7775810  39.5631750
  74.9182230  79.8058040  45.6340620  74.5597170  80.4711890  46.2213960
  74.6236790  78.9741590  46.0053240  78.1195350  80.2642280  48.5180170
  77.8195490  80.4099460  47.6207990  78.8906590  79.7047570  48.4253560
  85.2034600  83.4278790  39.3587730  85.5558420  82.8306920  38.6989100
  84.3196930  83.1023020  39.5295980  73.4290280  79.8049300  32.2575220
  74.2985130  80.0874100  32.5411140  72.9380600  80.6185170  32.1424030
  80.5925090  81.1922510  36.3783500  81.0487870  82.0027760  36.6043690
  80.2413300  80.8745650  37.2101990  76.4936870  71.5360160  36.8506020
  76.3651500  71.5278060  37.7990940  75.6698890  71.8743250  36.4997030
  73.4930800  73.2951280  46.3112720  72.7789320  73.4948200  46.9165330
  73.9125840  72.5190850  46.6827520  75.4136790  81.6222770  34.3857280
  74.8064740  82.3621670  34.3952580  75.8886140  81.7122130  33.5595480
  84.9869580  75.7873590  44.0614170  85.3550400  74.9668800  44.3893740
  84.1267780  75.8475480  44.4769820  80.3215640  77.0216480  36.2859610
  79.6131790  77.4902820  36.7273220  80.6060120  76.3638490  36.9204800
  81.9471570  78.4413180  44.2852140  82.4456820  78.9159000  44.9503990
  82.0894520  77.5176700  44.4922170  84.3531070  73.7467140  37.7255400
  84.2298850  73.7653270  36.7764910  85.3015630  73.7946080  37.8453800
  78.5250660  75.3301560  33.6610320  79.3741190  75.7671710  33.5950510
  78.1581930  75.6421820  34.4882380  77.4242080  81.5833920  32.1345850
  78.1905350  81.4715280  32.6971280  77.5016770  80.8871890  31.4822620
  76.1188840  79.0158990  32.8178740  76.1992430  78.0686500  32.9296140
  77.0108590  79.3465870  32.9239400  73.6459640  80.8373910  48.0534910
  74.1498660  80.2581190  48.6251140  72.9067060  81.1214140  48.5911280
  80.5483260  83.5588100  31.6081200  80.4433900  82.9440450  32.3342580
  80.3807480  83.0353990  30.8244210  80.6997580  82.2444900  47.5870430
  79.9343250  82.8129900  47.5025100  80.8813540  81.9521110  46.6938660
  83.7885990  82.6208130  32.2123190  83.2396090  83.0677430  32.8565930
  84.4105250  82.1157380  32.7360860  75.6782720  78.9803500  48.9484980
  75.7188060  78.6817370  49.8570210  76.5328220  79.3811110  48.7892500
  79.4561110  81.5799050  34.1088490  79.8777530  81.4138920  34.9519880
  79.5811950  80.7699280  33.6143630  77.6188530  77.5595600  46.9159470
  77.0884990  77.0686550  46.2882810  78.2876600  77.9879800  46.3817400
  81.9688750  80.6036660  31.3565590  82.4894410  79.8885680  30.9906740
  82.6157150  81.2422530  31.6566100  86.5166590  82.0265060  46.6800660
  86.9307610  82.1810140  47.5291080  85.5817590  82.1520280  46.8426440
  78.1060830  74.5257970  46.9956760  78.0117700  73.9078720  46.2707630
  77.5258220  75.2524260  46.7686670  80.8722270  73.0831210  44.0284150
  80.4239570  73.1055470  43.1829700  80.2387470  72.6850230  44.6254450
  81.2781820  81.9785540  44.6496590  81.6969930  82.8218270  44.4772830
  80.3590450  82.1157580  44.4203370  83.6145720  79.7101720  46.0334430
  83.7341930  79.1142860  46.7729270  84.4739720  79.7471410  45.6135730
  85.9533620  80.2638910  44.6096940  85.4268840  80.7881530  44.0062080
  86.2964960  80.8966300  45.2406670  78.3520010  77.6532280  31.0546650
  78.1509070  76.7899640  31.4159990  78.1812060  77.5665640  30.1168250
  80.3814490  76.2523070  47.2910250  80.9714180  75.9438920  47.9788070
  79.5634730  75.7802820  47.4470150  85.2007920  75.8688880  47.5243270
  84.5123440  75.2070420  47.4593260  85.9213940  75.4227150  47.9691730
  85.8308320  72.4640510  33.5833530  86.1110610  71.6208410  33.9392950
  85.0574050  72.6963620  34.0972280  77.1502810  74.7532900  31.0424530
  77.4528710  74.7600330  30.1343680  77.8897400  74.4030760  31.5392190
  80.3687740  73.6967520  32.0280730  80.0209740  73.0191510  31.4483180
  80.5700510  73.2357030  32.8424120  73.7093380  80.2255170  38.4245100
  73.0542220  79.9566810  37.7804800  74.5471330  80.1159650  37.9747080
  86.6583820  75.0196460  32.6463590  87.0768700  74.8327440  31.8060250
  86.3519880  74.1675510  32.9566520  74.7469310  80.6107740  42.9648440
  75.1142350  80.5235140  43.8444460  74.1780130  79.8474290  42.8655300
  74.2985310  77.5216830  46.8706860  73.4041360  77.4883590  47.2100570
  74.8382860  77.7203620  47.6358110  72.9231460  77.4354100  34.3670430
  72.0195540  77.6984300  34.1922090  73.4072080  77.7065270  33.5870390
  75.4658670  76.4919640  32.2764810  76.1750370  76.0702860  31.7912090
  74.7498610  76.5594870  31.6448160  75.1132830  72.5458970  31.3167460
  75.8360960  73.0867910  31.6348680  75.3857350  72.2722390  30.4409000
  74.8025020  71.7965160  41.2190080  75.4501210  71.2462540  40.7785240
  75.2226860  72.0508310  42.0405890  74.5557020  71.9520830  43.9615400
  74.2071840  72.4084650  44.7273580  74.2244720  71.0577960  44.0437830
  82.0681840  73.1432710  47.4834820  82.0070730  73.7354540  48.2330230
  83.0082220  73.0358670  47.3385080  84.7056400  72.8002770  47.1227110
  85.3196810  73.1182060  46.4608190  85.2505960  72.3151360  47.7422970
  75.2277660  71.4797030  47.2366170  75.7760650  71.2985080  46.4732280
  75.2932970  70.6891140  47.7722480  85.4464440  71.3634910  43.4496400
  84.5724280  71.6970020  43.2469330  85.3375190  70.8908090  44.2748270
  86.3536420  73.5705780  44.8338120  86.0249780  72.7557540  44.4539850
  87.3018720  73.5275590  44.7103810  83.1939260  72.2804750  42.3889310
  82.4111050  72.7550250  42.6686070  82.9002190  71.3759580  42.2802490
  74.5379670  72.5852230  34.9103030  75.2959030  72.6981110  34.3367060
  74.0756840  73.4221430  34.8646460  81.0793480  74.6991500  37.9005340
  80.2667990  74.3248390  37.5601220  81.5835120  73.9436580  38.2026530
  85.5818460  71.3633950  39.1388410  86.1847830  71.9354160  39.6136930
  84.8411450  71.9273390  38.9162310  76.9104820  73.1116280  33.4505000
  77.4397580  72.3246080  33.3212950  77.5433140  73.7907470  33.6840530
  79.1042660  72.8491420  36.5050390  78.4745400  72.1478730  36.6720520
  78.5647800  73.6095550  36.2883550  79.2298220  72.1275400  48.9402880
  78.9482490  72.6309000  48.1763700  79.6117920  71.3297150  48.5745010
  85.8313680  71.5428980  49.5183350  85.7179130  71.8623590  50.4134870
  86.6483420  71.9441490  49.2220630  84.7371830  79.5621450  19.8818090
  84.6565880  78.6476060  19.6109800  84.3236250  80.0588520  19.1757800
  82.8689870  81.3400470  21.7627360  82.0931970  80.8600910  22.0525930
  83.5202800  80.6606120  21.5883520  76.8855700  81.6520280  22.6403120
  76.0540580  81.3968990  23.0399630  77.4936680  81.7231050  23.3761040
  75.2947650  76.6122170  16.4245510  74.4064350  76.9538140  16.3225390
  75.5788840  76.4122490  15.5326340  73.2580660  79.2127820  22.3085210
  73.8296770  78.4450020  22.3088850  73.2582200  79.5116580  21.3991820
  82.3098860  84.0157660  21.7697520  82.2407140  83.0747600  21.6086650
  83.0718720  84.1059070  22.3420090  74.5005530  74.6212180  24.0954140
  74.3208370  73.7237930  24.3756900  74.0985610  75.1684050  24.7701090
  83.3404030  76.8228040  21.9966450  83.7168850  75.9499920  21.8840120
  83.2423540  77.1586740  21.1056890  77.4709040  75.1953670  17.4583890
  77.5775790  76.0957400  17.7652650  76.5601400  75.1471640  17.1678540
  75.1192200  77.1172680  22.7036480  75.8002310  77.3811050  23.3223880
  74.8040250  76.2773550  23.0374490  79.3116770  78.1640040  21.7909070
  79.8194990  78.6621010  22.4314090  79.8430010  77.3875240  21.6148430
  77.5952870  72.8038600  26.0572490  77.5971310  73.3210990  25.2518390
  76.7657180  72.3268780  26.0342420  83.9823960  82.9157910  17.5562390
  83.3641230  83.3807360  16.9925110  84.4947210  83.6085390  17.9731900
  78.8455720  82.4433780  24.2345990  78.5125100  83.0702700  24.8767060
  79.0222400  82.9695660  23.4547660  77.2768200  74.5148560  24.0642940
  77.6185010  75.3590610  23.7696810  76.3384010  74.6632300  24.1808280
  80.9596090  72.0030830  20.3887530  81.2671070  71.4477720  19.6723030
  80.0296790  72.1375290  20.2060520  85.9096590  82.6227960  24.0077600
  86.3265380  82.4088070  23.1731060  86.6336410  82.8800750  24.5786220
  83.3476850  80.0679660  17.1247650  82.4206130  80.0017040  17.3536120
  83.5001670  81.0059790  17.0102890  83.3345930  76.3396660  14.1214810
  82.3949600  76.5010620  14.2067270  83.6529190  77.0582340  13.5750800
  87.3774140  81.6299960  17.6282900  86.7586560  81.2919510  16.9809200
  87.3598590  80.9859720  18.3362090  86.8200700  77.8084500  25.0448710
  86.4071880  78.6338210  25.2988700  86.0876650  77.2229540  24.8525070
  78.9533490  80.5944400  19.9067380  78.5490490  79.8821650  19.4113280
  79.0396610  80.2497640  20.7955420  77.6662110  77.3687610  23.6866420
  78.2176700  77.4782950  22.9119670  78.1805620  77.7425210  24.4021650
  85.5538840  80.8686770  14.6355650  85.9932120  80.0309200  14.4893470
  86.2667260  81.5016170  14.7219790  77.3404840  80.8906970  27.2971760
  77.2012610  81.7629770  27.6659160  76.4586200  80.5479780  27.1519700
  75.6538120  79.4889380  17.4074030  75.5335720  80.2151470  16.7955300
  75.3439010  78.7192290  16.9301940  73.2923490  82.6604520  23.2142670
  73.3703910  82.7953290  22.2698390  73.9065170  81.9520410  23.4070790
  73.3483010  83.7018690  25.7537130  73.5114050  83.2324050  24.9356500
  73.8135460  83.1942250  26.4185970  78.1201780  72.8324450  20.7897700
  77.6769930  73.6133990  20.4582220  78.6786770  73.1554340  21.4968640
  82.4071590  75.6992970  26.3933020  81.9450960  75.9075990  27.2052960
  82.0049700  74.8852320  26.0903690  87.4076100  76.9201920  27.5229680
  86.5569690  76.6207670  27.8438750  87.2477890  77.1643930  26.6113500
  84.5025810  78.4203670  29.6228470  84.8279220  77.5867420  29.2830700
  85.2906140  78.9432190  29.7706800  81.2360600  72.4535150  15.6703530
  80.6114780  72.4495020  16.3956840  81.1490720  71.5866110  15.2739500
  80.1577680  73.3771780  22.6487300  80.4550010  74.2834610  22.5679320
  80.7063240  72.8890560  22.0346870  77.9116000  77.9558020  18.5178950
  77.6856920  77.7395190  19.4225570  77.1308530  78.3886480  18.1724920
  85.1413760  77.9621390  17.1169600  84.5422650  78.6857190  16.9333220
  85.6893370  77.8998170  16.3346050  80.3515210  78.8543600  29.1839220
  80.2558810  77.9138330  29.0339620  81.1947190  79.0758670  28.7887290
  83.7478630  76.5984930  19.1472880  84.1408200  76.9157130  18.3341570
  84.1095480  75.7196810  19.2617400  75.4825750  75.2657270  27.3373000
  75.0889140  76.1132480  27.5445780  74.7944150  74.6283640  27.5281640
  82.0570800  75.3492240  30.4069740  81.3669120  75.1564440  31.0415830
  82.8003100  75.6326880  30.9394040  72.7842800  73.1885730  21.3703080
  72.4955850  73.7588590  22.0828060  73.5288560  72.7090180  21.7334310
  72.9713030  77.1305850  12.5805800  72.8887700  78.0736610  12.7220790
  72.6196090  76.9880760  11.7018150  84.3333770  79.1890680  23.2423660
  83.6014890  79.6977490  23.5913760  83.9358110  78.3720660  22.9412440
  80.7711160  75.8644880  21.6476150  80.7747220  75.4234830  20.7980690
  81.6662280  76.1862210  21.7547970  76.6213540  75.7471370  20.6070360
  76.2813590  76.2246600  21.3637410  75.8590860  75.2936490  20.2471460
  80.8331310  76.8656960  14.6382910  80.9544130  76.8243440  15.5868730
  80.4479820  77.7281110  14.4829640  84.7959680  74.6424360  22.6546600
  84.8132420  75.0933010  23.4988450  84.5475260  73.7430000  22.8680040
  79.8452810  79.1758100  14.0366210  79.2769710  78.7276350  13.4102120
  80.5541810  79.5350880  13.5031360  74.9221990  83.0770120  27.9132940
  74.5376780  82.4363790  28.5115900  75.2334180  83.7806240  28.4827670
  81.0719130  79.9246660  23.3941560  81.4389260  79.4505230  24.1402900
  80.8824190  80.7988230  23.7349900  73.9359620  74.6690350  19.5235030
  73.6506540  74.3046020  20.3613650  73.8738480  73.9370810  18.9098170
  78.8618500  78.9655300  25.7125770  78.5575570  79.8447280  25.9376130
  79.8164960  79.0255090  25.7483210  77.3900290  83.1716290  16.3092620
  76.6162550  82.6313910  16.1491340  78.1194920  82.6522900  15.9710380
  83.6098210  73.5619610  16.2448400  82.7962820  73.0632780  16.1693710
  83.4160160  74.4017860  15.8284750  83.5307070  82.2390710  27.9888010
  83.4644380  81.3186380  27.7345600  82.9012210  82.3366150  28.7032650
  86.3246600  77.9339260  14.5410560  87.2126220  78.2456490  14.3661900
  86.2951690  77.0611510  14.1491140  77.4337690  82.8396670  19.9471430
  77.9516360  82.0364930  19.8928320  76.9821710  82.7775810  20.7888260
  74.9182230  79.8058040  26.8597130  74.5597170  80.4711890  27.4470470
  74.6236790  78.9741590  27.2309750  78.1195350  80.2642280  29.7436680
  77.8195490  80.4099460  28.8464500  78.8906590  79.7047570  29.6510070
  85.2034600  83.4278790  20.5844240  85.5558420  82.8306920  19.9245610
  84.3196930  83.1023020  20.7552490  73.4290280  79.8049300  13.4831730
  74.2985130  80.0874100  13.7667650  72.9380600  80.6185170  13.3680540
  80.5925090  81.1922510  17.6040010  81.0487870  82.0027760  17.8300200
  80.2413300  80.8745650  18.4358500  76.4936870  71.5360160  18.0762530
  76.3651500  71.5278060  19.0247450  75.6698890  71.8743250  17.7253540
  73.4930800  73.2951280  27.5369230  72.7789320  73.4948200  28.1421840
  73.9125840  72.5190850  27.9084030  75.4136790  81.6222770  15.6113790
  74.8064740  82.3621670  15.6209090  75.8886140  81.7122130  14.7851990
  84.9869580  75.7873590  25.2870680  85.3550400  74.9668800  25.6150250
  84.1267780  75.8475480  25.7026330  80.3215640  77.0216480  17.5116120
  79.6131790  77.4902820  17.9529730  80.6060120  76.3638490  18.1461310
  81.9471570  78.4413180  25.5108650  82.4456820  78.9159000  26.1760500
  82.0894520  77.5176700  25.7178680  84.3531070  73.7467140  18.9511910
  84.2298850  73.7653270  18.0021420  85.3015630  73.7946080  19.0710310
  78.5250660  75.3301560  14.8866830  79.3741190  75.7671710  14.8207020
  78.1581930  75.6421820  15.7138890  77.4242080  81.5833920  13.3602360
  78.1905350  81.4715280  13.9227790  77.5016770  80.8871890  12.7079130
  76.1188840  79.0158990  14.0435250  76.1992430  78.0686500  14.1552650
  77.0108590  79.3465870  14.1495910  73.6459640  80.8373910  29.2791420
  74.1498660  80.2581190  29.8507650  72.9067060  81.1214140  29.8167790
  80.5483260  83.5588100  12.8337710  80.4433900  82.9440450  13.5599090
  80.3807480  83.0353990  12.0500720  80.6997580  82.2444900  28.8126940
  79.9343250  82.8129900  28.7281610  80.8813540  81.9521110  27.9195170
  83.7885990  82.6208130  13.4379700  83.2396090  83.0677430  14.0822440
  84.4105250  82.1157380  13.9617370  75.6782720  78.9803500  30.1741490
  75.7188060  78.6817370  31.0826720  76.5328220  79.3811110  30.0149010
  79.4561110  81.5799050  15.3345000  79.8777530  81.4138920  16.1776390
  79.5811950  80.7699280  14.8400140  77.6188530  77.5595600  28.1415980
  77.0884990  77.0686550  27.5139320  78.2876600  77.9879800  27.6073910
  81.9688750  80.6036660  12.5822100  82.4894410  79.8885680  12.2163250
  82.6157150  81.2422530  12.8822610  86.5166590  82.0265060  27.9057170
  86.9307610  82.1810140  28.7547590  85.5817590  82.1520280  28.0682950
  78.1060830  74.5257970  28.2213270  78.0117700  73.9078720  27.4964140
  77.5258220  75.2524260  27.9943180  80.8722270  73.0831210  25.2540660
  80.4239570  73.1055470  24.4086210  80.2387470  72.6850230  25.8510960
  81.2781820  81.9785540  25.8753100  81.6969930  82.8218270  25.7029340
  80.3590450  82.1157580  25.6459880  83.6145720  79.7101720  27.2590940
  83.7341930  79.1142860  27.9985780  84.4739720  79.7471410  26.8392240
  85.9533620  80.2638910  25.8353450  85.4268840  80.7881530  25.2318590
  86.2964960  80.8966300  26.4663180  78.3520010  77.6532280  12.2803160
  78.1509070  76.7899640  12.6416500  78.1812060  77.5665640  11.3424760
  80.3814490  76.2523070  28.5166760  80.9714180  75.9438920  29.2044580
  79.5634730  75.7802820  28.6726660  85.2007920  75.8688880  28.7499780
  84.5123440  75.2070420  28.6849770  85.9213940  75.4227150  29.1948240
  85.8308320  72.4640510  14.8090040  86.1110610  71.6208410  15.1649460
  85.0574050  72.6963620  15.3228790  77.1502810  74.7532900  12.2681040
  77.4528710  74.7600330  11.3600190  77.8897400  74.4030760  12.7648700
  80.3687740  73.6967520  13.2537240  80.0209740  73.0191510  12.6739690
  80.5700510  73.2357030  14.0680630  73.7093380  80.2255170  19.6501610
  73.0542220  79.9566810  19.0061310  74.5471330  80.1159650  19.2003590
  86.6583820  75.0196460  13.8720100  87.0768700  74.8327440  13.0316760
  86.3519880  74.1675510  14.1823030  74.7469310  80.6107740  24.1904950
  75.1142350  80.5235140  25.0700970  74.1780130  79.8474290  24.0911810
  74.2985310  77.5216830  28.0963370  73.4041360  77.4883590  28.4357080
  74.8382860  77.7203620  28.8614620  72.9231460  77.4354100  15.5926940
  72.0195540  77.6984300  15.4178600  73.4072080  77.7065270  14.8126900
  75.4658670  76.4919640  13.5021320  76.1750370  76.0702860  13.0168600
  74.7498610  76.5594870  12.8704670  75.1132830  72.5458970  12.5423970
  75.8360960  73.0867910  12.8605190  75.3857350  72.2722390  11.6665510
  74.8025020  71.7965160  22.4446590  75.4501210  71.2462540  22.0041750
  75.2226860  72.0508310  23.2662400  74.5557020  71.9520830  25.1871910
  74.2071840  72.4084650  25.9530090  74.2244720  71.0577960  25.2694340
  82.0681840  73.1432710  28.7091330  82.0070730  73.7354540  29.4586740
  83.0082220  73.0358670  28.5641590  84.7056400  72.8002770  28.3483620
  85.3196810  73.1182060  27.6864700  85.2505960  72.3151360  28.9679480
  75.2277660  71.4797030  28.4622680  75.7760650  71.2985080  27.6988790
  75.2932970  70.6891140  28.9978990  85.4464440  71.3634910  24.6752910
  84.5724280  71.6970020  24.4725840  85.3375190  70.8908090  25.5004780
  86.3536420  73.5705780  26.0594630  86.0249780  72.7557540  25.6796360
  87.3018720  73.5275590  25.9360320  83.1939260  72.2804750  23.6145820
  82.4111050  72.7550250  23.8942580  82.9002190  71.3759580  23.5059000
  74.5379670  72.5852230  16.1359540  75.2959030  72.6981110  15.5623570
  74.0756840  73.4221430  16.0902970  81.0793480  74.6991500  19.1261850
  80.2667990  74.3248390  18.7857730  81.5835120  73.9436580  19.4283040
  85.5818460  71.3633950  20.3644920  86.1847830  71.9354160  20.8393440
  84.8411450  71.9273390  20.1418820  76.9104820  73.1116280  14.6761510
  77.4397580  72.3246080  14.5469460  77.5433140  73.7907470  14.9097040
  79.1042660  72.8491420  17.7306900  78.4745400  72.1478730  17.8977030
  78.5647800  73.6095550  17.5140060  79.2298220  72.1275400  30.1659390
  78.9482490  72.6309000  29.4020210  79.6117920  71.3297150  29.8001520
  85.8313680  71.5428980  30.7439860  85.7179130  71.8623590  31.6391380
  86.6483420  71.9441490  30.4477140  82.8689870  81.3400470   2.9883870
  82.0931970  80.8600910   3.2782440  83.5202800  80.6606120   2.8140030
  76.8855700  81.6520280   3.8659630  76.0540580  81.3968990   4.2656140
  77.4936680  81.7231050   4.6017550  73.2580660  79.2127820   3.5341720
  73.8296770  78.4450020   3.5345360  73.2582200  79.5116580   2.6248330
  82.3098860  84.0157660   2.9954030  82.2407140  83.0747600   2.8343160
  83.0718720  84.1059070   3.5676600  74.5005530  74.6212180   5.3210650
  74.3208370  73.7237930   5.6013410  74.0985610  75.1684050   5.9957600
  83.3404030  76.8228040   3.2222960  83.7168850  75.9499920   3.1096630
  83.2423540  77.1586740   2.3313400  75.1192200  77.1172680   3.9292990
  75.8002310  77.3811050   4.5480390  74.8040250  76.2773550   4.2631000
  79.3116770  78.1640040   3.0165580  79.8194990  78.6621010   3.6570600
  79.8430010  77.3875240   2.8404940  77.5952870  72.8038600   7.2829000
  77.5971310  73.3210990   6.4774900  76.7657180  72.3268780   7.2598930
  78.8455720  82.4433780   5.4602500  78.5125100  83.0702700   6.1023570
  79.0222400  82.9695660   4.6804170  77.2768200  74.5148560   5.2899450
  77.6185010  75.3590610   4.9953320  76.3384010  74.6632300   5.4064790
  85.9096590  82.6227960   5.2334110  86.3265380  82.4088070   4.3987570
  86.6336410  82.8800750   5.8042730  86.8200700  77.8084500   6.2705220
  86.4071880  78.6338210   6.5245210  86.0876650  77.2229540   6.0781580
  77.6662110  77.3687610   4.9122930  78.2176700  77.4782950   4.1376180
  78.1805620  77.7425210   5.6278160  77.3404840  80.8906970   8.5228270
  77.2012610  81.7629770   8.8915670  76.4586200  80.5479780   8.3776210
  73.2923490  82.6604520   4.4399180  73.3703910  82.7953290   3.4954900
  73.9065170  81.9520410   4.6327300  73.3483010  83.7018690   6.9793640
  73.5114050  83.2324050   6.1613010  73.8135460  83.1942250   7.6442480
  78.1201780  72.8324450   2.0154210  77.6769930  73.6133990   1.6838730
  78.6786770  73.1554340   2.7225150  82.4071590  75.6992970   7.6189530
  81.9450960  75.9075990   8.4309470  82.0049700  74.8852320   7.3160200
  87.4076100  76.9201920   8.7486190  86.5569690  76.6207670   9.0695260
  87.2477890  77.1643930   7.8370010  84.5025810  78.4203670  10.8484980
  84.8279220  77.5867420  10.5087210  85.2906140  78.9432190  10.9963310
  80.1577680  73.3771780   3.8743810  80.4550010  74.2834610   3.7935830
  80.7063240  72.8890560   3.2603380  80.3515210  78.8543600  10.4095730
  80.2558810  77.9138330  10.2596130  81.1947190  79.0758670  10.0143800
  75.4825750  75.2657270   8.5629510  75.0889140  76.1132480   8.7702290
  74.7944150  74.6283640   8.7538150  82.0570800  75.3492240  11.6326250
  81.3669120  75.1564440  12.2672340  82.8003100  75.6326880  12.1650550
  72.7842800  73.1885730   2.5959590  72.4955850  73.7588590   3.3084570
  73.5288560  72.7090180   2.9590820  84.3333770  79.1890680   4.4680170
  83.6014890  79.6977490   4.8170270  83.9358110  78.3720660   4.1668950
  80.7711160  75.8644880   2.8732660  80.7747220  75.4234830   2.0237200
  81.6662280  76.1862210   2.9804480  84.7959680  74.6424360   3.8803110
  84.8132420  75.0933010   4.7244960  84.5475260  73.7430000   4.0936550
  74.9221990  83.0770120   9.1389450  74.5376780  82.4363790   9.7372410
  75.2334180  83.7806240   9.7084180  81.0719130  79.9246660   4.6198070
  81.4389260  79.4505230   5.3659410  80.8824190  80.7988230   4.9606410
  78.8618500  78.9655300   6.9382280  78.5575570  79.8447280   7.1632640
  79.8164960  79.0255090   6.9739720  83.5307070  82.2390710   9.2144520
  83.4644380  81.3186380   8.9602110  82.9012210  82.3366150   9.9289160
  74.9182230  79.8058040   8.0853640  74.5597170  80.4711890   8.6726980
  74.6236790  78.9741590   8.4566260  78.1195350  80.2642280  10.9693190
  77.8195490  80.4099460  10.0721010  78.8906590  79.7047570  10.8766580
  73.4930800  73.2951280   8.7625740  72.7789320  73.4948200   9.3678350
  73.9125840  72.5190850   9.1340540  84.9869580  75.7873590   6.5127190
  85.3550400  74.9668800   6.8406760  84.1267780  75.8475480   6.9282840
  81.9471570  78.4413180   6.7365160  82.4456820  78.9159000   7.4017010
  82.0894520  77.5176700   6.9435190  73.6459640  80.8373910  10.5047930
  74.1498660  80.2581190  11.0764160  72.9067060  81.1214140  11.0424300
  80.6997580  82.2444900  10.0383450  79.9343250  82.8129900   9.9538120
  80.8813540  81.9521110   9.1451680  75.6782720  78.9803500  11.3998000
  75.7188060  78.6817370  12.3083230  76.5328220  79.3811110  11.2405520
  77.6188530  77.5595600   9.3672490  77.0884990  77.0686550   8.7395830
  78.2876600  77.9879800   8.8330420  86.5166590  82.0265060   9.1313680
  86.9307610  82.1810140   9.9804100  85.5817590  82.1520280   9.2939460
  78.1060830  74.5257970   9.4469780  78.0117700  73.9078720   8.7220650
  77.5258220  75.2524260   9.2199690  80.8722270  73.0831210   6.4797170
  80.4239570  73.1055470   5.6342720  80.2387470  72.6850230   7.0767470
  81.2781820  81.9785540   7.1009610  81.6969930  82.8218270   6.9285850
  80.3590450  82.1157580   6.8716390  83.6145720  79.7101720   8.4847450
  83.7341930  79.1142860   9.2242290  84.4739720  79.7471410   8.0648750
  85.9533620  80.2638910   7.0609960  85.4268840  80.7881530   6.4575100
  86.2964960  80.8966300   7.6919690  80.3814490  76.2523070   9.7423270
  80.9714180  75.9438920  10.4301090  79.5634730  75.7802820   9.8983170
  85.2007920  75.8688880   9.9756290  84.5123440  75.2070420   9.9106280
  85.9213940  75.4227150  10.4204750  74.7469310  80.6107740   5.4161460
  75.1142350  80.5235140   6.2957480  74.1780130  79.8474290   5.3168320
  74.2985310  77.5216830   9.3219880  73.4041360  77.4883590   9.6613590
  74.8382860  77.7203620  10.0871130  74.8025020  71.7965160   3.6703100
  75.4501210  71.2462540   3.2298260  75.2226860  72.0508310   4.4918910
  74.5557020  71.9520830   6.4128420  74.2071840  72.4084650   7.1786600
  74.2244720  71.0577960   6.4950850  82.0681840  73.1432710   9.9347840
  82.0070730  73.7354540  10.6843250  83.0082220  73.0358670   9.7898100
  84.7056400  72.8002770   9.5740130  85.3196810  73.1182060   8.9121210
  85.2505960  72.3151360  10.1935990  75.2277660  71.4797030   9.6879190
  75.7760650  71.2985080   8.9245300  75.2932970  70.6891140  10.2235500
  85.4464440  71.3634910   5.9009420  84.5724280  71.6970020   5.6982350
  85.3375190  70.8908090   6.7261290  86.3536420  73.5705780   7.2851140
  86.0249780  72.7557540   6.9052870  87.3018720  73.5275590   7.1616830
  83.1939260  72.2804750   4.8402330  82.4111050  72.7550250   5.1199090
  82.9002190  71.3759580   4.7315510  79.2298220  72.1275400  11.3915900
  78.9482490  72.6309000  10.6276720  79.6117920  71.3297150  11.0258030
  85.8313680  71.5428980  11.9696370  85.7179130  71.8623590  12.8647890
  86.6483420  71.9441490  11.6733650  84.7371830  60.7877960  76.2048560
  84.6565880  59.8732570  75.9340270  84.3236250  61.2845030  75.4988270
  82.8689870  62.5656980  78.0857830  82.0931970  62.0857420  78.3756400
  83.5202800  61.8862630  77.9113990  75.2947650  57.8378680  72.7475980
  74.4064350  58.1794650  72.6455860  75.5788840  57.6379000  71.8556810
  73.2580660  60.4384330  78.6315680  73.8296770  59.6706530  78.6319320
  73.2582200  60.7373090  77.7222290  83.1160610  69.2575180  76.4860950
  82.4972050  69.7132680  75.9155390  83.9712390  69.4126640  76.0850650
  82.3098860  65.2414170  78.0927990  82.2407140  64.3004110  77.9317120
  83.0718720  65.3315580  78.6650560  83.3404030  58.0484550  78.3196920
  83.7168850  57.1756430  78.2070590  83.2423540  58.3843250  77.4287360
  77.4709040  56.4210180  73.7814360  77.5775790  57.3213910  74.0883120
  76.5601400  56.3728150  73.4909010  79.3116770  59.3896550  78.1139540
  79.8194990  59.8877520  78.7544560  79.8430010  58.6131750  77.9378900
  83.9823960  64.1414420  73.8792860  83.3641230  64.6063870  73.3155580
  84.4947210  64.8341900  74.2962370  73.3507160  64.8270950  71.2532490
  72.9735140  65.3158050  70.5217390  73.6080230  65.4996230  71.8839020
  80.9596090  53.2287340  76.7118000  81.2671070  52.6734230  75.9953500
  80.0296790  53.3631800  76.5290990  83.3476850  61.2936170  73.4478120
  82.4206130  61.2273550  73.6766590  83.5001670  62.2316300  73.3333360
  83.3345930  57.5653170  70.4445280  82.3949600  57.7267130  70.5297740
  83.6529190  58.2838850  69.8981270  87.3774140  62.8556470  73.9513370
  86.7586560  62.5176020  73.3039670  87.3598590  62.2116230  74.6592560
  78.9533490  61.8200910  76.2297850  78.5490490  61.1078160  75.7343750
  79.0396610  61.4754150  77.1185890  79.4215190  65.5068470  78.3937060
  79.1243480  64.9013940  77.7144840  80.3715010  65.5445780  78.2826420
  85.5538840  62.0943280  70.9586120  85.9932120  61.2565710  70.8123940
  86.2667260  62.7272680  71.0450260  83.6634220  67.0339350  74.9267360
  84.1030130  67.7763680  74.5122750  83.6021110  67.2765920  75.8506320
  75.6538120  60.7145890  73.7304500  75.5335720  61.4407980  73.1185770
  75.3439010  59.9448800  73.2532410  74.5371120  65.5861220  75.9479320
  74.1299200  65.7275810  75.0932920  75.4284130  65.3021380  75.7450530
  86.3304400  70.0208470  72.2830370  86.1705540  69.7311410  73.1812200
  86.1651110  69.2448600  71.7475600  78.8092780  69.8007000  74.0601990
  78.6335260  68.8842540  73.8469790  77.9548520  70.1594290  74.2999790
  86.0330530  67.5296030  70.8428370  85.3395690  67.5273320  70.1830650
  86.7753390  67.1055350  70.4122540  85.5980460  69.1558740  74.9176860
  86.0537410  68.3748120  75.2315480  85.9372980  69.8665560  75.4618040
  78.1201780  54.0580960  77.1128170  77.6769930  54.8390500  76.7812690
  78.6786770  54.3810850  77.8199110  81.2360600  53.6791660  71.9934000
  80.6114780  53.6751530  72.7187310  81.1490720  52.8122620  71.5969970
  77.9116000  59.1814530  74.8409420  77.6856920  58.9651700  75.7456040
  77.1308530  59.6142990  74.4955390  85.1413760  59.1877900  73.4400070
  84.5422650  59.9113700  73.2563690  85.6893370  59.1254680  72.6576520
  83.7478630  57.8241440  75.4703350  84.1408200  58.1413640  74.6572040
  84.1095480  56.9453320  75.5847870  72.7842800  54.4142240  77.6933550
  72.4955850  54.9845100  78.4058530  73.5288560  53.9346690  78.0564780
  72.9713030  58.3562360  68.9036270  72.8887700  59.2993120  69.0451260
  72.6196090  58.2137270  68.0248620  80.7711160  57.0901390  77.9706620
  80.7747220  56.6491340  77.1211160  81.6662280  57.4118720  78.0778440
  76.6213540  56.9727880  76.9300830  76.2813590  57.4503110  77.6867880
  75.8590860  56.5193000  76.5701930  80.8331310  58.0913470  70.9613380
  80.9544130  58.0499950  71.9099200  80.4479820  58.9537620  70.8060110
  79.8452810  60.4014610  70.3596680  79.2769710  59.9532860  69.7332590
  80.5541810  60.7607390  69.8261830  73.9359620  55.8946860  75.8465500
  73.6506540  55.5302530  76.6844120  73.8738480  55.1627320  75.2328640
  77.3900290  64.3972800  72.6323090  76.6162550  63.8570420  72.4721810
  78.1194920  63.8779410  72.2940850  83.6098210  54.7876120  72.5678870
  82.7962820  54.2889290  72.4924180  83.4160160  55.6274370  72.1515220
  86.3246600  59.1595770  70.8641030  87.2126220  59.4713000  70.6892370
  86.2951690  58.2868020  70.4721610  77.4337690  64.0653180  76.2701900
  77.9516360  63.2621440  76.2158790  76.9821710  64.0032320  77.1118730
  82.3207190  65.3319460  71.5429200  82.6622890  66.0761690  71.0472520
  81.4919900  65.6450580  71.9054030  85.2034600  64.6535300  76.9074710
  85.5558420  64.0563430  76.2476080  84.3196930  64.3279530  77.0782960
  81.2897880  65.4132990  74.3145120  81.9769010  65.9602200  74.6952710
  80.5030300  65.9573720  74.3494730  73.4290280  61.0305810  69.8062200
  74.2985130  61.3130610  70.0898120  72.9380600  61.8441680  69.6911010
  80.5925090  62.4179020  73.9270480  81.0487870  63.2284270  74.1530670
  80.2413300  62.1002160  74.7588970  76.4936870  52.7616670  74.3993000
  76.3651500  52.7534570  75.3477920  75.6698890  53.0999760  74.0484010
  73.7961530  70.2433190  70.3723830  74.1559170  70.8422530  69.7181100
  73.6553870  70.7893080  71.1458860  79.8130150  67.6264390  71.1897500
  79.8040250  68.3594080  70.5742010  78.8928510  67.3795970  71.2824460
  75.4136790  62.8479280  71.9344260  74.8064740  63.5878180  71.9439560
  75.8886140  62.9378640  71.1082460  82.7989750  67.6892630  69.8522690
  82.9001730  67.4856620  68.9224670  81.8991490  67.4350910  70.0570470
  80.3215640  58.2472990  73.8346590  79.6131790  58.7159330  74.2760200
  80.6060120  57.5895000  74.4691780  84.3531070  54.9723650  75.2742380
  84.2298850  54.9909780  74.3251890  85.3015630  55.0202590  75.3940780
  81.4407860  70.2078950  74.5470360  81.6949360  70.1700340  73.6249730
  80.4920340  70.0812280  74.5398610  78.5250660  56.5558070  71.2097300
  79.3741190  56.9928220  71.1437490  78.1581930  56.8678330  72.0369360
  77.4242080  62.8090430  69.6832830  78.1905350  62.6971790  70.2458260
  77.5016770  62.1128400  69.0309600  76.1188840  60.2415500  70.3665720
  76.1992430  59.2943010  70.4783120  77.0108590  60.5722380  70.4726380
  76.9203550  70.3910890  77.4700260  77.6566030  69.8426350  77.7408830
  77.3044470  71.2566900  77.3306250  73.8049030  66.4584460  73.3441770
  72.8788810  66.7005600  73.3347180  74.2705460  67.2858720  73.2226520
  80.0305860  69.5641200  69.2925830  80.8234470  69.8530030  68.8407620
  79.5110210  69.1333370  68.6138310  80.5483260  64.7844610  69.1568180
  80.4433900  64.1696960  69.8829560  80.3807480  64.2610500  68.3731190
  83.7885990  63.8464640  69.7610170  83.2396090  64.2933940  70.4052910
  84.4105250  63.3413890  70.2847840  79.4561110  62.8055560  71.6575470
  79.8777530  62.6395430  72.5006860  79.5811950  61.9955790  71.1630610
  81.9688750  61.8293170  68.9052570  82.4894410  61.1142190  68.5393720
  82.6157150  62.4679040  69.2053080  78.3520010  58.8788790  68.6033630
  78.1509070  58.0156150  68.9646970  78.1812060  58.7922150  67.6655230
  85.8308320  53.6897020  71.1320510  86.1110610  52.8464920  71.4879930
  85.0574050  53.9220130  71.6459260  77.1502810  55.9789410  68.5911510
  77.4528710  55.9856840  67.6830660  77.8897400  55.6287270  69.0879170
  80.3687740  54.9224030  69.5767710  80.0209740  54.2448020  68.9970160
  80.5700510  54.4613540  70.3911100  82.5336780  69.9104780  71.1954310
  83.4287570  70.2489750  71.2173070  82.5654410  69.1884190  70.5678590
  76.1732940  65.2831830  69.4241310  76.6107810  65.8261500  70.0798890
  76.6580670  64.4578780  69.4337650  73.3878740  68.0720860  76.8761570
  73.7181750  67.2041920  76.6440210  73.8169740  68.2779380  77.7066530
  77.9840660  66.4029870  74.5363540  77.6836200  66.2794840  75.4367450
  77.8778150  65.5438460  74.1279270  73.7093380  61.4511680  75.9732080
  73.0542220  61.1823320  75.3291780  74.5471330  61.3416160  75.5234060
  86.6583820  56.2452970  70.1950570  87.0768700  56.0583950  69.3547230
  86.3519880  55.3932020  70.5053500  72.9231460  58.6610610  71.9157410
  72.0195540  58.9240810  71.7409070  73.4072080  58.9321780  71.1357370
  75.4658670  57.7176150  69.8251790  76.1750370  57.2959370  69.3399070
  74.7498610  57.7851380  69.1935140  75.1132830  53.7715480  68.8654440
  75.8360960  54.3124420  69.1835660  75.3857350  53.4978900  67.9895980
  73.9151650  69.9791960  74.9558150  73.7473690  69.3462640  75.6540040
  73.0486160  70.1851360  74.6052340  74.5379670  53.8108740  72.4590010
  75.2959030  53.9237620  71.8854040  74.0756840  54.6477940  72.4133440
  81.0793480  55.9248010  75.4492320  80.2667990  55.5504900  75.1088200
  81.5835120  55.1693090  75.7513510  85.5818460  52.5890460  76.6875390
  86.1847830  53.1610670  77.1623910  84.8411450  53.1529900  76.4649290
  75.5214350  68.6725190  72.4008290  74.9961970  69.0533220  71.6970250
  75.4458930  69.2975960  73.1218000  76.9104820  54.3372790  70.9991980
  77.4397580  53.5502590  70.8699930  77.5433140  55.0163980  71.2327510
  79.1042660  54.0747930  74.0537370  78.4745400  53.3735240  74.2207500
  78.5647800  54.8352060  73.8370530  78.1207320  70.6207570  71.2757540
  78.8526140  70.3366850  70.7281430  78.3800990  70.3820850  72.1656920
  77.2822110  66.7372300  71.2803870  76.6530990  67.2057400  71.8289700
  77.3969940  65.8921520  71.7150060  84.7371830  60.7877960  57.4305070
  84.6565880  59.8732570  57.1596780  84.3236250  61.2845030  56.7244780
  82.8689870  62.5656980  59.3114340  82.0931970  62.0857420  59.6012910
  83.5202800  61.8862630  59.1370500  76.8855700  62.8776790  60.1890100
  76.0540580  62.6225500  60.5886610  77.4936680  62.9487560  60.9248020
  76.8656960  66.9116880  60.3848120  77.1685000  66.0214620  60.2058340
  77.6100550  67.4687100  60.1570370  75.2947650  57.8378680  53.9732490
  74.4064350  58.1794650  53.8712370  75.5788840  57.6379000  53.0813320
  73.2580660  60.4384330  59.8572190  73.8296770  59.6706530  59.8575830
  73.2582200  60.7373090  58.9478800  83.1160610  69.2575180  57.7117460
  82.4972050  69.7132680  57.1411900  83.9712390  69.4126640  57.3107160
  82.3098860  65.2414170  59.3184500  82.2407140  64.3004110  59.1573630
  83.0718720  65.3315580  59.8907070  74.5005530  55.8468690  61.6441120
  74.3208370  54.9494440  61.9243880  74.0985610  56.3940560  62.3188070
  83.3404030  58.0484550  59.5453430  83.7168850  57.1756430  59.4327100
  83.2423540  58.3843250  58.6543870  77.4709040  56.4210180  55.0070870
  77.5775790  57.3213910  55.3139630  76.5601400  56.3728150  54.7165520
  75.1192200  58.3429190  60.2523460  75.8002310  58.6067560  60.8710860
  74.8040250  57.5030060  60.5861470  79.3116770  59.3896550  59.3396050
  79.8194990  59.8877520  59.9801070  79.8430010  58.6131750  59.1635410
  77.5952870  54.0295110  63.6059470  77.5971310  54.5467500  62.8005370
  76.7657180  53.5525290  63.5829400  83.9823960  64.1414420  55.1049370
  83.3641230  64.6063870  54.5412090  84.4947210  64.8341900  55.5218880
  78.8455720  63.6690290  61.7832970  78.5125100  64.2959210  62.4254040
  79.0222400  64.1952170  61.0034640  77.2768200  55.7405070  61.6129920
  77.6185010  56.5847120  61.3183790  76.3384010  55.8888810  61.7295260
  78.0574820  65.6371090  63.5982150  78.6748820  66.3122170  63.3166600
  77.1967940  66.0459070  63.5069650  73.3507160  64.8270950  52.4789000
  72.9735140  65.3158050  51.7473900  73.6080230  65.4996230  53.1095530
  80.9596090  53.2287340  57.9374510  81.2671070  52.6734230  57.2210010
  80.0296790  53.3631800  57.7547500  86.5111150  68.9454630  60.2281970
  86.5238310  68.5416920  59.3604230  85.9586370  69.7201920  60.1243400
  85.9096590  63.8484470  61.5564580  86.3265380  63.6344580  60.7218040
  86.6336410  64.1057260  62.1273200  83.3476850  61.2936170  54.6734630
  82.4206130  61.2273550  54.9023100  83.5001670  62.2316300  54.5589870
  83.3345930  57.5653170  51.6701790  82.3949600  57.7267130  51.7554250
  83.6529190  58.2838850  51.1237780  87.3774140  62.8556470  55.1769880
  86.7586560  62.5176020  54.5296180  87.3598590  62.2116230  55.8849070
  86.8200700  59.0341010  62.5935690  86.4071880  59.8594720  62.8475680
  86.0876650  58.4486050  62.4012050  78.9533490  61.8200910  57.4554360
  78.5490490  61.1078160  56.9600260  79.0396610  61.4754150  58.3442400
  79.4215190  65.5068470  59.6193570  79.1243480  64.9013940  58.9401350
  80.3715010  65.5445780  59.5082930  77.6662110  58.5944120  61.2353400
  78.2176700  58.7039460  60.4606650  78.1805620  58.9681720  61.9508630
  78.5133620  65.2450160  66.2701370  77.6162150  65.4690130  66.5174770
  78.5386490  65.3685100  65.3212770  85.5538840  62.0943280  52.1842630
  85.9932120  61.2565710  52.0380450  86.2667260  62.7272680  52.2706770
  77.3404840  62.1163480  64.8458740  77.2012610  62.9886280  65.2146140
  76.4586200  61.7736290  64.7006680  83.6634220  67.0339350  56.1523870
  84.1030130  67.7763680  55.7379260  83.6021110  67.2765920  57.0762830
  79.1385190  68.0585180  67.0543890  79.1100620  68.4628130  66.1872320
  78.9750160  67.1295540  66.8915490  75.6538120  60.7145890  54.9561010
  75.5335720  61.4407980  54.3442280  75.3439010  59.9448800  54.4788920
  73.2923490  63.8861030  60.7629650  73.3703910  64.0209800  59.8185370
  73.9065170  63.1776920  60.9557770  74.5371120  65.5861220  57.1735830
  74.1299200  65.7275810  56.3189430  75.4284130  65.3021380  56.9707040
  84.3550000  69.7353130  64.0802880  84.8694670  69.6461140  64.8825310
  83.5119080  70.0812830  64.3730790  86.3304400  70.0208470  53.5086880
  86.1705540  69.7311410  54.4068710  86.1651110  69.2448600  52.9732110
  78.8092780  69.8007000  55.2858500  78.6335260  68.8842540  55.0726300
  77.9548520  70.1594290  55.5256300  86.0330530  67.5296030  52.0684880
  85.3395690  67.5273320  51.4087160  86.7753390  67.1055350  51.6379050
  85.5980460  69.1558740  56.1433370  86.0537410  68.3748120  56.4571990
  85.9372980  69.8665560  56.6874550  73.3483010  64.9275200  63.3024110
  73.5114050  64.4580560  62.4843480  73.8135460  64.4198760  63.9672950
  78.1201780  54.0580960  58.3384680  77.6769930  54.8390500  58.0069200
  78.6786770  54.3810850  59.0455620  82.4071590  56.9249480  63.9420000
  81.9450960  57.1332500  64.7539940  82.0049700  56.1108830  63.6390670
  87.4076100  58.1458430  65.0716660  86.5569690  57.8464180  65.3925730
  87.2477890  58.3900440  64.1600480  84.5025810  59.6460180  67.1715450
  84.8279220  58.8123930  66.8317680  85.2906140  60.1688700  67.3193780
  81.2360600  53.6791660  53.2190510  80.6114780  53.6751530  53.9443820
  81.1490720  52.8122620  52.8226480  80.1577680  54.6028290  60.1974280
  80.4550010  55.5091120  60.1166300  80.7063240  54.1147070  59.5833850
  77.9116000  59.1814530  56.0665930  77.6856920  58.9651700  56.9712550
  77.1308530  59.6142990  55.7211900  85.1413760  59.1877900  54.6656580
  84.5422650  59.9113700  54.4820200  85.6893370  59.1254680  53.8833030
  80.3515210  60.0800110  66.7326200  80.2558810  59.1394840  66.5826600
  81.1947190  60.3015180  66.3374270  83.7478630  57.8241440  56.6959860
  84.1408200  58.1413640  55.8828550  84.1095480  56.9453320  56.8104380
  75.4825750  56.4913780  64.8859980  75.0889140  57.3388990  65.0932760
  74.7944150  55.8540150  65.0768620  82.0570800  56.5748750  67.9556720
  81.3669120  56.3820950  68.5902810  82.8003100  56.8583390  68.4881020
  72.7842800  54.4142240  58.9190060  72.4955850  54.9845100  59.6315040
  73.5288560  53.9346690  59.2821290  72.9713030  58.3562360  50.1292780
  72.8887700  59.2993120  50.2707770  72.6196090  58.2137270  49.2505130
  84.3333770  60.4147190  60.7910640  83.6014890  60.9234000  61.1400740
  83.9358110  59.5977170  60.4899420  80.7711160  57.0901390  59.1963130
  80.7747220  56.6491340  58.3467670  81.6662280  57.4118720  59.3034950
  76.6213540  56.9727880  58.1557340  76.2813590  57.4503110  58.9124390
  75.8590860  56.5193000  57.7958440  80.8331310  58.0913470  52.1869890
  80.9544130  58.0499950  53.1355710  80.4479820  58.9537620  52.0316620
  84.7959680  55.8680870  60.2033580  84.8132420  56.3189520  61.0475430
  84.5475260  54.9686510  60.4167020  79.8452810  60.4014610  51.5853190
  79.2769710  59.9532860  50.9589100  80.5541810  60.7607390  51.0518340
  74.9221990  64.3026630  65.4619920  74.5376780  63.6620300  66.0602880
  75.2334180  65.0062750  66.0314650  81.0719130  61.1503170  60.9428540
  81.4389260  60.6761740  61.6889880  80.8824190  62.0244740  61.2836880
  73.9359620  55.8946860  57.0722010  73.6506540  55.5302530  57.9100630
  73.8738480  55.1627320  56.4585150  78.8618500  60.1911810  63.2612750
  78.5575570  61.0703790  63.4863110  79.8164960  60.2511600  63.2970190
  77.3900290  64.3972800  53.8579600  76.6162550  63.8570420  53.6978320
  78.1194920  63.8779410  53.5197360  83.6098210  54.7876120  53.7935380
  82.7962820  54.2889290  53.7180690  83.4160160  55.6274370  53.3771730
  83.5307070  63.4647220  65.5374990  83.4644380  62.5442890  65.2832580
  82.9012210  63.5622660  66.2519630  86.3246600  59.1595770  52.0897540
  87.2126220  59.4713000  51.9148880  86.2951690  58.2868020  51.6978120
  77.4337690  64.0653180  57.4958410  77.9516360  63.2621440  57.4415300
  76.9821710  64.0032320  58.3375240  82.3207190  65.3319460  52.7685710
  82.6622890  66.0761690  52.2729030  81.4919900  65.6450580  53.1310540
  74.9182230  61.0314550  64.4084110  74.5597170  61.6968400  64.9957450
  74.6236790  60.1998100  64.7796730  78.1195350  61.4898790  67.2923660
  77.8195490  61.6355970  66.3951480  78.8906590  60.9304080  67.1997050
  83.4623800  66.2867790  65.2878790  83.4768340  65.3548750  65.0697700
  82.7548900  66.3727550  65.9268560  85.2034600  64.6535300  58.1331220
  85.5558420  64.0563430  57.4732590  84.3196930  64.3279530  58.3039470
  81.2897880  65.4132990  55.5401630  81.9769010  65.9602200  55.9209220
  80.5030300  65.9573720  55.5751240  73.4290280  61.0305810  51.0318710
  74.2985130  61.3130610  51.3154630  72.9380600  61.8441680  50.9167520
  80.5925090  62.4179020  55.1526990  81.0487870  63.2284270  55.3787180
  80.2413300  62.1002160  55.9845480  82.8957700  67.9285360  62.3819290
  83.5399920  68.1344740  63.0592710  83.2587140  67.1673760  61.9290140
  76.4936870  52.7616670  55.6249510  76.3651500  52.7534570  56.5734430
  75.6698890  53.0999760  55.2740520  84.1689780  65.9317710  61.0996740
  84.8112010  65.2310870  61.2128910  84.6939130  66.7116150  60.9193630
  85.9427400  66.7312610  64.3032800  86.2783640  67.3179300  64.9810720
  85.0227740  66.6005320  64.5330590  73.7961530  70.2433190  51.5980340
  74.1559170  70.8422530  50.9437610  73.6553870  70.7893080  52.3715370
  73.4930800  54.5207790  65.0856210  72.7789320  54.7204710  65.6908820
  73.9125840  53.7447360  65.4571010  73.7803390  68.5088050  66.0722740
  73.8894510  67.5682790  65.9318130  73.1283950  68.7742800  65.4236470
  81.7715980  66.7803940  67.4720860  81.4512850  66.0613180  68.0166550
  81.0974340  67.4559010  67.5456920  79.8130150  67.6264390  52.4154010
  79.8040250  68.3594080  51.7998520  78.8928510  67.3795970  52.5080970
  75.4136790  62.8479280  53.1600770  74.8064740  63.5878180  53.1696070
  75.8886140  62.9378640  52.3338970  84.9869580  57.0130100  62.8357660
  85.3550400  56.1925310  63.1637230  84.1267780  57.0731990  63.2513310
  82.7989750  67.6892630  51.0779200  82.9001730  67.4856620  50.1481180
  81.8991490  67.4350910  51.2826980  80.3215640  58.2472990  55.0603100
  79.6131790  58.7159330  55.5016710  80.6060120  57.5895000  55.6948290
  81.9471570  59.6669690  63.0595630  82.4456820  60.1415510  63.7247480
  82.0894520  58.7433210  63.2665660  84.3531070  54.9723650  56.4998890
  84.2298850  54.9909780  55.5508400  85.3015630  55.0202590  56.6197290
  81.4407860  70.2078950  55.7726870  81.6949360  70.1700340  54.8506240
  80.4920340  70.0812280  55.7655120  78.5250660  56.5558070  52.4353810
  79.3741190  56.9928220  52.3694000  78.1581930  56.8678330  53.2625870
  77.4242080  62.8090430  50.9089340  78.1905350  62.6971790  51.4714770
  77.5016770  62.1128400  50.2566110  76.1188840  60.2415500  51.5922230
  76.1992430  59.2943010  51.7039630  77.0108590  60.5722380  51.6982890
  76.9203550  70.3910890  58.6956770  77.6566030  69.8426350  58.9665340
  77.3044470  71.2566900  58.5562760  73.8049030  66.4584460  54.5698280
  72.8788810  66.7005600  54.5603690  74.2705460  67.2858720  54.4483030
  75.9261830  69.5756960  67.8842350  76.7274560  69.8969010  68.2977750
  75.4113650  69.2152540  68.6062260  80.0305860  69.5641200  50.5182340
  80.8234470  69.8530030  50.0664130  79.5110210  69.1333370  49.8394820
  84.7626460  65.6836830  67.8317760  84.1564620  65.7068430  67.0913510
  84.4580570  64.9519870  68.3685010  86.1926830  69.4117120  66.4427170
  87.1448580  69.3275140  66.3927410  86.0455050  70.0758830  67.1160960
  73.6459640  62.0630420  66.8278400  74.1498660  61.4837700  67.3994630
  72.9067060  62.3470650  67.3654770  80.5483260  64.7844610  50.3824690
  80.4433900  64.1696960  51.1086070  80.3807480  64.2610500  49.5987700
  80.6997580  63.4701410  66.3613920  79.9343250  64.0386410  66.2768590
  80.8813540  63.1777620  65.4682150  83.7885990  63.8464640  50.9866680
  83.2396090  64.2933940  51.6309420  84.4105250  63.3413890  51.5104350
  75.6782720  60.2060010  67.7228470  75.7188060  59.9073880  68.6313700
  76.5328220  60.6067620  67.5635990  79.4561110  62.8055560  52.8831980
  79.8777530  62.6395430  53.7263370  79.5811950  61.9955790  52.3887120
  77.6188530  58.7852110  65.6902960  77.0884990  58.2943060  65.0626300
  78.2876600  59.2136310  65.1560890  81.9688750  61.8293170  50.1309080
  82.4894410  61.1142190  49.7650230  82.6157150  62.4679040  50.4309590
  86.5166590  63.2521570  65.4544150  86.9307610  63.4066650  66.3034570
  85.5817590  63.3776790  65.6169930  78.1060830  55.7514480  65.7700250
  78.0117700  55.1335230  65.0451120  77.5258220  56.4780770  65.5430160
  80.8722270  54.3087720  62.8027640  80.4239570  54.3311980  61.9573190
  80.2387470  53.9106740  63.3997940  81.2781820  63.2042050  63.4240080
  81.6969930  64.0474780  63.2516320  80.3590450  63.3414090  63.1946860
  83.6145720  60.9358230  64.8077920  83.7341930  60.3399370  65.5472760
  84.4739720  60.9727920  64.3879220  85.9533620  61.4895420  63.3840430
  85.4268840  62.0138040  62.7805570  86.2964960  62.1222810  64.0150160
  78.3520010  58.8788790  49.8290140  78.1509070  58.0156150  50.1903480
  78.1812060  58.7922150  48.8911740  79.1289240  69.5095060  64.5397810
  78.5910330  70.2341120  64.2206510  79.3823200  69.0325400  63.7495150
  80.3814490  57.4779580  66.0653740  80.9714180  57.1695430  66.7531560
  79.5634730  57.0059330  66.2213640  85.2007920  57.0945390  66.2986760
  84.5123440  56.4326930  66.2336750  85.9213940  56.6483660  66.7435220
  85.8308320  53.6897020  52.3577020  86.1110610  52.8464920  52.7136440
  85.0574050  53.9220130  52.8715770  77.1502810  55.9789410  49.8168020
  77.4528710  55.9856840  48.9087170  77.8897400  55.6287270  50.3135680
  81.9851450  70.7446270  64.7984460  81.9110150  71.6481410  65.1056830
  81.0830290  70.4258170  64.7706530  80.3687740  54.9224030  50.8024220
  80.0209740  54.2448020  50.2226670  80.5700510  54.4613540  51.6167610
  82.5336780  69.9104780  52.4210820  83.4287570  70.2489750  52.4429580
  82.5654410  69.1884190  51.7935100  76.1732940  65.2831830  50.6497820
  76.6107810  65.8261500  51.3055400  76.6580670  64.4578780  50.6594160
  73.3878740  68.0720860  58.1018080  73.7181750  67.2041920  57.8696720
  73.8169740  68.2779380  58.9323040  77.9840660  66.4029870  55.7620050
  77.6836200  66.2794840  56.6623960  77.8778150  65.5438460  55.3535780
  73.8768950  68.9391450  60.8399710  73.4399940  69.1192250  61.6723860
  74.4446630  69.6966070  60.6981430  73.7093380  61.4511680  57.1988590
  73.0542220  61.1823320  56.5548290  74.5471330  61.3416160  56.7490570
  86.6583820  56.2452970  51.4207080  87.0768700  56.0583950  50.5803740
  86.3519880  55.3932020  51.7310010  74.7469310  61.8364250  61.7391930
  75.1142350  61.7491650  62.6187950  74.1780130  61.0730800  61.6398790
  74.2985310  58.7473340  65.6450350  73.4041360  58.7140100  65.9844060
  74.8382860  58.9460130  66.4101600  72.9231460  58.6610610  53.1413920
  72.0195540  58.9240810  52.9665580  73.4072080  58.9321780  52.3613880
  75.4658670  57.7176150  51.0508300  76.1750370  57.2959370  50.5655580
  74.7498610  57.7851380  50.4191650  75.1132830  53.7715480  50.0910950
  75.8360960  54.3124420  50.4092170  75.3857350  53.4978900  49.2152490
  74.8025020  53.0221670  59.9933570  75.4501210  52.4719050  59.5528730
  75.2226860  53.2764820  60.8149380  74.5557020  53.1777340  62.7358890
  74.2071840  53.6341160  63.5017070  74.2244720  52.2834470  62.8181320
  76.1621390  66.3496940  66.9012080  76.1191020  65.9789850  67.7826540
  76.2932400  67.2874510  67.0413900  79.8627420  67.9056530  62.5021800
  79.6218780  68.1731090  61.6152320  80.8030060  68.0762260  62.5572660
  82.0681840  54.3689220  66.2578310  82.0070730  54.9611050  67.0073720
  83.0082220  54.2615180  66.1128570  84.7056400  54.0259280  65.8970600
  85.3196810  54.3438570  65.2351680  85.2505960  53.5407870  66.5166460
  75.2277660  52.7053540  66.0109660  75.7760650  52.5241590  65.2475770
  75.2932970  51.9147650  66.5465970  76.0009420  69.2959190  64.0209860
  75.4069740  69.1643890  64.7599900  75.9933260  68.4597330  63.5551960
  85.4464440  52.5891420  62.2239890  84.5724280  52.9226530  62.0212820
  85.3375190  52.1164600  63.0491760  86.3536420  54.7962290  63.6081610
  86.0249780  53.9814050  63.2283340  87.3018720  54.7532100  63.4847300
  75.6321650  66.6617570  62.9717900  74.9055710  66.0422860  62.9043850
  75.6930800  67.0558180  62.1015980  79.2366750  68.8762570  59.7567310
  79.7531770  68.2649930  59.2315570  79.8864130  69.3791350  60.2478320
  81.9762250  69.7671060  60.5836290  82.2640060  69.5125360  59.7069300
  82.4885470  69.2148420  61.1741860  83.1939260  53.5061260  61.1632800
  82.4111050  53.9806760  61.4429560  82.9002190  52.6016090  61.0545980
  73.9151650  69.9791960  56.1814660  73.7473690  69.3462640  56.8796550
  73.0486160  70.1851360  55.8308850  74.5379670  53.8108740  53.6846520
  75.2959030  53.9237620  53.1110550  74.0756840  54.6477940  53.6389950
  81.0793480  55.9248010  56.6748830  80.2667990  55.5504900  56.3344710
  81.5835120  55.1693090  56.9770020  85.5818460  52.5890460  57.9131900
  86.1847830  53.1610670  58.3880420  84.8411450  53.1529900  57.6905800
  75.5214350  68.6725190  53.6264800  74.9961970  69.0533220  52.9226760
  75.4458930  69.2975960  54.3474510  76.9104820  54.3372790  52.2248490
  77.4397580  53.5502590  52.0956440  77.5433140  55.0163980  52.4584020
  79.1042660  54.0747930  55.2793880  78.4745400  53.3735240  55.4464010
  78.5647800  54.8352060  55.0627040  82.0434610  70.6887160  67.9504490
  82.9701920  70.4531430  67.9940450  82.0285040  71.5159160  67.4690520
  79.2298220  53.3531910  67.7146370  78.9482490  53.8565510  66.9507190
  79.6117920  52.5553660  67.3488500  78.1207320  70.6207570  52.5014050
  78.8526140  70.3366850  51.9537940  78.3800990  70.3820850  53.3913430
  77.2822110  66.7372300  52.5060380  76.6530990  67.2057400  53.0546210
  77.3969940  65.8921520  52.9406570  85.8313680  52.7685490  68.2926840
  85.7179130  53.0880100  69.1878360  86.6483420  53.1698000  67.9964120
  84.7371830  60.7877960  38.6561580  84.6565880  59.8732570  38.3853290
  84.3236250  61.2845030  37.9501290  82.8689870  62.5656980  40.5370850
  82.0931970  62.0857420  40.8269420  83.5202800  61.8862630  40.3627010
  76.8855700  62.8776790  41.4146610  76.0540580  62.6225500  41.8143120
  77.4936680  62.9487560  42.1504530  76.8656960  66.9116880  41.6104630
  77.1685000  66.0214620  41.4314850  77.6100550  67.4687100  41.3826880
  75.2947650  57.8378680  35.1989000  74.4064350  58.1794650  35.0968880
  75.5788840  57.6379000  34.3069830  73.2580660  60.4384330  41.0828700
  73.8296770  59.6706530  41.0832340  73.2582200  60.7373090  40.1735310
  83.1160610  69.2575180  38.9373970  82.4972050  69.7132680  38.3668410
  83.9712390  69.4126640  38.5363670  82.3098860  65.2414170  40.5441010
  82.2407140  64.3004110  40.3830140  83.0718720  65.3315580  41.1163580
  74.5005530  55.8468690  42.8697630  74.3208370  54.9494440  43.1500390
  74.0985610  56.3940560  43.5444580  83.3404030  58.0484550  40.7709940
  83.7168850  57.1756430  40.6583610  83.2423540  58.3843250  39.8800380
  77.4709040  56.4210180  36.2327380  77.5775790  57.3213910  36.5396140
  76.5601400  56.3728150  35.9422030  75.1192200  58.3429190  41.4779970
  75.8002310  58.6067560  42.0967370  74.8040250  57.5030060  41.8117980
  79.3116770  59.3896550  40.5652560  79.8194990  59.8877520  41.2057580
  79.8430010  58.6131750  40.3891920  77.5952870  54.0295110  44.8315980
  77.5971310  54.5467500  44.0261880  76.7657180  53.5525290  44.8085910
  83.9823960  64.1414420  36.3305880  83.3641230  64.6063870  35.7668600
  84.4947210  64.8341900  36.7475390  78.8455720  63.6690290  43.0089480
  78.5125100  64.2959210  43.6510550  79.0222400  64.1952170  42.2291150
  77.2768200  55.7405070  42.8386430  77.6185010  56.5847120  42.5440300
  76.3384010  55.8888810  42.9551770  78.0574820  65.6371090  44.8238660
  78.6748820  66.3122170  44.5423110  77.1967940  66.0459070  44.7326160
  73.3507160  64.8270950  33.7045510  72.9735140  65.3158050  32.9730410
  73.6080230  65.4996230  34.3352040  80.9596090  53.2287340  39.1631020
  81.2671070  52.6734230  38.4466520  80.0296790  53.3631800  38.9804010
  86.5111150  68.9454630  41.4538480  86.5238310  68.5416920  40.5860740
  85.9586370  69.7201920  41.3499910  85.9096590  63.8484470  42.7821090
  86.3265380  63.6344580  41.9474550  86.6336410  64.1057260  43.3529710
  83.3476850  61.2936170  35.8991140  82.4206130  61.2273550  36.1279610
  83.5001670  62.2316300  35.7846380  83.3345930  57.5653170  32.8958300
  82.3949600  57.7267130  32.9810760  83.6529190  58.2838850  32.3494290
  87.3774140  62.8556470  36.4026390  86.7586560  62.5176020  35.7552690
  87.3598590  62.2116230  37.1105580  86.8200700  59.0341010  43.8192200
  86.4071880  59.8594720  44.0732190  86.0876650  58.4486050  43.6268560
  78.9533490  61.8200910  38.6810870  78.5490490  61.1078160  38.1856770
  79.0396610  61.4754150  39.5698910  79.4215190  65.5068470  40.8450080
  79.1243480  64.9013940  40.1657860  80.3715010  65.5445780  40.7339440
  77.6662110  58.5944120  42.4609910  78.2176700  58.7039460  41.6863160
  78.1805620  58.9681720  43.1765140  78.5133620  65.2450160  47.4957880
  77.6162150  65.4690130  47.7431280  78.5386490  65.3685100  46.5469280
  85.5538840  62.0943280  33.4099140  85.9932120  61.2565710  33.2636960
  86.2667260  62.7272680  33.4963280  77.3404840  62.1163480  46.0715250
  77.2012610  62.9886280  46.4402650  76.4586200  61.7736290  45.9263190
  83.6634220  67.0339350  37.3780380  84.1030130  67.7763680  36.9635770
  83.6021110  67.2765920  38.3019340  79.1385190  68.0585180  48.2800400
  79.1100620  68.4628130  47.4128830  78.9750160  67.1295540  48.1172000
  75.6538120  60.7145890  36.1817520  75.5335720  61.4407980  35.5698790
  75.3439010  59.9448800  35.7045430  73.2923490  63.8861030  41.9886160
  73.3703910  64.0209800  41.0441880  73.9065170  63.1776920  42.1814280
  74.5371120  65.5861220  38.3992340  74.1299200  65.7275810  37.5445940
  75.4284130  65.3021380  38.1963550  84.3550000  69.7353130  45.3059390
  84.8694670  69.6461140  46.1081820  83.5119080  70.0812830  45.5987300
  86.3304400  70.0208470  34.7343390  86.1705540  69.7311410  35.6325220
  86.1651110  69.2448600  34.1988620  78.8092780  69.8007000  36.5115010
  78.6335260  68.8842540  36.2982810  77.9548520  70.1594290  36.7512810
  86.0330530  67.5296030  33.2941390  85.3395690  67.5273320  32.6343670
  86.7753390  67.1055350  32.8635560  85.5980460  69.1558740  37.3689880
  86.0537410  68.3748120  37.6828500  85.9372980  69.8665560  37.9131060
  73.3483010  64.9275200  44.5280620  73.5114050  64.4580560  43.7099990
  73.8135460  64.4198760  45.1929460  78.1201780  54.0580960  39.5641190
  77.6769930  54.8390500  39.2325710  78.6786770  54.3810850  40.2712130
  82.4071590  56.9249480  45.1676510  81.9450960  57.1332500  45.9796450
  82.0049700  56.1108830  44.8647180  87.4076100  58.1458430  46.2973170
  86.5569690  57.8464180  46.6182240  87.2477890  58.3900440  45.3856990
  84.5025810  59.6460180  48.3971960  84.8279220  58.8123930  48.0574190
  85.2906140  60.1688700  48.5450290  81.2360600  53.6791660  34.4447020
  80.6114780  53.6751530  35.1700330  81.1490720  52.8122620  34.0482990
  80.1577680  54.6028290  41.4230790  80.4550010  55.5091120  41.3422810
  80.7063240  54.1147070  40.8090360  77.9116000  59.1814530  37.2922440
  77.6856920  58.9651700  38.1969060  77.1308530  59.6142990  36.9468410
  85.1413760  59.1877900  35.8913090  84.5422650  59.9113700  35.7076710
  85.6893370  59.1254680  35.1089540  80.3515210  60.0800110  47.9582710
  80.2558810  59.1394840  47.8083110  81.1947190  60.3015180  47.5630780
  83.7478630  57.8241440  37.9216370  84.1408200  58.1413640  37.1085060
  84.1095480  56.9453320  38.0360890  75.4825750  56.4913780  46.1116490
  75.0889140  57.3388990  46.3189270  74.7944150  55.8540150  46.3025130
  82.0570800  56.5748750  49.1813230  81.3669120  56.3820950  49.8159320
  82.8003100  56.8583390  49.7137530  72.7842800  54.4142240  40.1446570
  72.4955850  54.9845100  40.8571550  73.5288560  53.9346690  40.5077800
  72.9713030  58.3562360  31.3549290  72.8887700  59.2993120  31.4964280
  72.6196090  58.2137270  30.4761640  84.3333770  60.4147190  42.0167150
  83.6014890  60.9234000  42.3657250  83.9358110  59.5977170  41.7155930
  80.7711160  57.0901390  40.4219640  80.7747220  56.6491340  39.5724180
  81.6662280  57.4118720  40.5291460  76.6213540  56.9727880  39.3813850
  76.2813590  57.4503110  40.1380900  75.8590860  56.5193000  39.0214950
  80.8331310  58.0913470  33.4126400  80.9544130  58.0499950  34.3612220
  80.4479820  58.9537620  33.2573130  84.7959680  55.8680870  41.4290090
  84.8132420  56.3189520  42.2731940  84.5475260  54.9686510  41.6423530
  79.8452810  60.4014610  32.8109700  79.2769710  59.9532860  32.1845610
  80.5541810  60.7607390  32.2774850  74.9221990  64.3026630  46.6876430
  74.5376780  63.6620300  47.2859390  75.2334180  65.0062750  47.2571160
  81.0719130  61.1503170  42.1685050  81.4389260  60.6761740  42.9146390
  80.8824190  62.0244740  42.5093390  73.9359620  55.8946860  38.2978520
  73.6506540  55.5302530  39.1357140  73.8738480  55.1627320  37.6841660
  78.8618500  60.1911810  44.4869260  78.5575570  61.0703790  44.7119620
  79.8164960  60.2511600  44.5226700  77.3900290  64.3972800  35.0836110
  76.6162550  63.8570420  34.9234830  78.1194920  63.8779410  34.7453870
  83.6098210  54.7876120  35.0191890  82.7962820  54.2889290  34.9437200
  83.4160160  55.6274370  34.6028240  83.5307070  63.4647220  46.7631500
  83.4644380  62.5442890  46.5089090  82.9012210  63.5622660  47.4776140
  86.3246600  59.1595770  33.3154050  87.2126220  59.4713000  33.1405390
  86.2951690  58.2868020  32.9234630  77.4337690  64.0653180  38.7214920
  77.9516360  63.2621440  38.6671810  76.9821710  64.0032320  39.5631750
  82.3207190  65.3319460  33.9942220  82.6622890  66.0761690  33.4985540
  81.4919900  65.6450580  34.3567050  74.9182230  61.0314550  45.6340620
  74.5597170  61.6968400  46.2213960  74.6236790  60.1998100  46.0053240
  78.1195350  61.4898790  48.5180170  77.8195490  61.6355970  47.6207990
  78.8906590  60.9304080  48.4253560  83.4623800  66.2867790  46.5135300
  83.4768340  65.3548750  46.2954210  82.7548900  66.3727550  47.1525070
  85.2034600  64.6535300  39.3587730  85.5558420  64.0563430  38.6989100
  84.3196930  64.3279530  39.5295980  81.2897880  65.4132990  36.7658140
  81.9769010  65.9602200  37.1465730  80.5030300  65.9573720  36.8007750
  73.4290280  61.0305810  32.2575220  74.2985130  61.3130610  32.5411140
  72.9380600  61.8441680  32.1424030  80.5925090  62.4179020  36.3783500
  81.0487870  63.2284270  36.6043690  80.2413300  62.1002160  37.2101990
  82.8957700  67.9285360  43.6075800  83.5399920  68.1344740  44.2849220
  83.2587140  67.1673760  43.1546650  76.4936870  52.7616670  36.8506020
  76.3651500  52.7534570  37.7990940  75.6698890  53.0999760  36.4997030
  84.1689780  65.9317710  42.3253250  84.8112010  65.2310870  42.4385420
  84.6939130  66.7116150  42.1450140  85.9427400  66.7312610  45.5289310
  86.2783640  67.3179300  46.2067230  85.0227740  66.6005320  45.7587100
  73.7961530  70.2433190  32.8236850  74.1559170  70.8422530  32.1694120
  73.6553870  70.7893080  33.5971880  73.4930800  54.5207790  46.3112720
  72.7789320  54.7204710  46.9165330  73.9125840  53.7447360  46.6827520
  73.7803390  68.5088050  47.2979250  73.8894510  67.5682790  47.1574640
  73.1283950  68.7742800  46.6492980  81.7715980  66.7803940  48.6977370
  81.4512850  66.0613180  49.2423060  81.0974340  67.4559010  48.7713430
  79.8130150  67.6264390  33.6410520  79.8040250  68.3594080  33.0255030
  78.8928510  67.3795970  33.7337480  75.4136790  62.8479280  34.3857280
  74.8064740  63.5878180  34.3952580  75.8886140  62.9378640  33.5595480
  84.9869580  57.0130100  44.0614170  85.3550400  56.1925310  44.3893740
  84.1267780  57.0731990  44.4769820  82.7989750  67.6892630  32.3035710
  82.9001730  67.4856620  31.3737690  81.8991490  67.4350910  32.5083490
  80.3215640  58.2472990  36.2859610  79.6131790  58.7159330  36.7273220
  80.6060120  57.5895000  36.9204800  81.9471570  59.6669690  44.2852140
  82.4456820  60.1415510  44.9503990  82.0894520  58.7433210  44.4922170
  84.3531070  54.9723650  37.7255400  84.2298850  54.9909780  36.7764910
  85.3015630  55.0202590  37.8453800  81.4407860  70.2078950  36.9983380
  81.6949360  70.1700340  36.0762750  80.4920340  70.0812280  36.9911630
  78.5250660  56.5558070  33.6610320  79.3741190  56.9928220  33.5950510
  78.1581930  56.8678330  34.4882380  77.4242080  62.8090430  32.1345850
  78.1905350  62.6971790  32.6971280  77.5016770  62.1128400  31.4822620
  76.1188840  60.2415500  32.8178740  76.1992430  59.2943010  32.9296140
  77.0108590  60.5722380  32.9239400  76.9203550  70.3910890  39.9213280
  77.6566030  69.8426350  40.1921850  77.3044470  71.2566900  39.7819270
  73.8049030  66.4584460  35.7954790  72.8788810  66.7005600  35.7860200
  74.2705460  67.2858720  35.6739540  75.9261830  69.5756960  49.1098860
  76.7274560  69.8969010  49.5234260  75.4113650  69.2152540  49.8318770
  80.0305860  69.5641200  31.7438850  80.8234470  69.8530030  31.2920640
  79.5110210  69.1333370  31.0651330  84.7626460  65.6836830  49.0574270
  84.1564620  65.7068430  48.3170020  84.4580570  64.9519870  49.5941520
  86.1926830  69.4117120  47.6683680  87.1448580  69.3275140  47.6183920
  86.0455050  70.0758830  48.3417470  73.6459640  62.0630420  48.0534910
  74.1498660  61.4837700  48.6251140  72.9067060  62.3470650  48.5911280
  80.5483260  64.7844610  31.6081200  80.4433900  64.1696960  32.3342580
  80.3807480  64.2610500  30.8244210  80.6997580  63.4701410  47.5870430
  79.9343250  64.0386410  47.5025100  80.8813540  63.1777620  46.6938660
  83.7885990  63.8464640  32.2123190  83.2396090  64.2933940  32.8565930
  84.4105250  63.3413890  32.7360860  75.6782720  60.2060010  48.9484980
  75.7188060  59.9073880  49.8570210  76.5328220  60.6067620  48.7892500
  79.4561110  62.8055560  34.1088490  79.8777530  62.6395430  34.9519880
  79.5811950  61.9955790  33.6143630  77.6188530  58.7852110  46.9159470
  77.0884990  58.2943060  46.2882810  78.2876600  59.2136310  46.3817400
  81.9688750  61.8293170  31.3565590  82.4894410  61.1142190  30.9906740
  82.6157150  62.4679040  31.6566100  86.5166590  63.2521570  46.6800660
  86.9307610  63.4066650  47.5291080  85.5817590  63.3776790  46.8426440
  78.1060830  55.7514480  46.9956760  78.0117700  55.1335230  46.2707630
  77.5258220  56.4780770  46.7686670  80.8722270  54.3087720  44.0284150
  80.4239570  54.3311980  43.1829700  80.2387470  53.9106740  44.6254450
  81.2781820  63.2042050  44.6496590  81.6969930  64.0474780  44.4772830
  80.3590450  63.3414090  44.4203370  83.6145720  60.9358230  46.0334430
  83.7341930  60.3399370  46.7729270  84.4739720  60.9727920  45.6135730
  85.9533620  61.4895420  44.6096940  85.4268840  62.0138040  44.0062080
  86.2964960  62.1222810  45.2406670  78.3520010  58.8788790  31.0546650
  78.1509070  58.0156150  31.4159990  78.1812060  58.7922150  30.1168250
  79.1289240  69.5095060  45.7654320  78.5910330  70.2341120  45.4463020
  79.3823200  69.0325400  44.9751660  80.3814490  57.4779580  47.2910250
  80.9714180  57.1695430  47.9788070  79.5634730  57.0059330  47.4470150
  85.2007920  57.0945390  47.5243270  84.5123440  56.4326930  47.4593260
  85.9213940  56.6483660  47.9691730  85.8308320  53.6897020  33.5833530
  86.1110610  52.8464920  33.9392950  85.0574050  53.9220130  34.0972280
  77.1502810  55.9789410  31.0424530  77.4528710  55.9856840  30.1343680
  77.8897400  55.6287270  31.5392190  81.9851450  70.7446270  46.0240970
  81.9110150  71.6481410  46.3313340  81.0830290  70.4258170  45.9963040
  80.3687740  54.9224030  32.0280730  80.0209740  54.2448020  31.4483180
  80.5700510  54.4613540  32.8424120  82.5336780  69.9104780  33.6467330
  83.4287570  70.2489750  33.6686090  82.5654410  69.1884190  33.0191610
  76.1732940  65.2831830  31.8754330  76.6107810  65.8261500  32.5311910
  76.6580670  64.4578780  31.8850670  73.3878740  68.0720860  39.3274590
  73.7181750  67.2041920  39.0953230  73.8169740  68.2779380  40.1579550
  77.9840660  66.4029870  36.9876560  77.6836200  66.2794840  37.8880470
  77.8778150  65.5438460  36.5792290  73.8768950  68.9391450  42.0656220
  73.4399940  69.1192250  42.8980370  74.4446630  69.6966070  41.9237940
  73.7093380  61.4511680  38.4245100  73.0542220  61.1823320  37.7804800
  74.5471330  61.3416160  37.9747080  86.6583820  56.2452970  32.6463590
  87.0768700  56.0583950  31.8060250  86.3519880  55.3932020  32.9566520
  74.7469310  61.8364250  42.9648440  75.1142350  61.7491650  43.8444460
  74.1780130  61.0730800  42.8655300  74.2985310  58.7473340  46.8706860
  73.4041360  58.7140100  47.2100570  74.8382860  58.9460130  47.6358110
  72.9231460  58.6610610  34.3670430  72.0195540  58.9240810  34.1922090
  73.4072080  58.9321780  33.5870390  75.4658670  57.7176150  32.2764810
  76.1750370  57.2959370  31.7912090  74.7498610  57.7851380  31.6448160
  75.1132830  53.7715480  31.3167460  75.8360960  54.3124420  31.6348680
  75.3857350  53.4978900  30.4409000  74.8025020  53.0221670  41.2190080
  75.4501210  52.4719050  40.7785240  75.2226860  53.2764820  42.0405890
  74.5557020  53.1777340  43.9615400  74.2071840  53.6341160  44.7273580
  74.2244720  52.2834470  44.0437830  76.1621390  66.3496940  48.1268590
  76.1191020  65.9789850  49.0083050  76.2932400  67.2874510  48.2670410
  79.8627420  67.9056530  43.7278310  79.6218780  68.1731090  42.8408830
  80.8030060  68.0762260  43.7829170  82.0681840  54.3689220  47.4834820
  82.0070730  54.9611050  48.2330230  83.0082220  54.2615180  47.3385080
  84.7056400  54.0259280  47.1227110  85.3196810  54.3438570  46.4608190
  85.2505960  53.5407870  47.7422970  75.2277660  52.7053540  47.2366170
  75.7760650  52.5241590  46.4732280  75.2932970  51.9147650  47.7722480
  76.0009420  69.2959190  45.2466370  75.4069740  69.1643890  45.9856410
  75.9933260  68.4597330  44.7808470  85.4464440  52.5891420  43.4496400
  84.5724280  52.9226530  43.2469330  85.3375190  52.1164600  44.2748270
  86.3536420  54.7962290  44.8338120  86.0249780  53.9814050  44.4539850
  87.3018720  54.7532100  44.7103810  75.6321650  66.6617570  44.1974410
  74.9055710  66.0422860  44.1300360  75.6930800  67.0558180  43.3272490
  79.2366750  68.8762570  40.9823820  79.7531770  68.2649930  40.4572080
  79.8864130  69.3791350  41.4734830  81.9762250  69.7671060  41.8092800
  82.2640060  69.5125360  40.9325810  82.4885470  69.2148420  42.3998370
  83.1939260  53.5061260  42.3889310  82.4111050  53.9806760  42.6686070
  82.9002190  52.6016090  42.2802490  73.9151650  69.9791960  37.4071170
  73.7473690  69.3462640  38.1053060  73.0486160  70.1851360  37.0565360
  74.5379670  53.8108740  34.9103030  75.2959030  53.9237620  34.3367060
  74.0756840  54.6477940  34.8646460  81.0793480  55.9248010  37.9005340
  80.2667990  55.5504900  37.5601220  81.5835120  55.1693090  38.2026530
  85.5818460  52.5890460  39.1388410  86.1847830  53.1610670  39.6136930
  84.8411450  53.1529900  38.9162310  75.5214350  68.6725190  34.8521310
  74.9961970  69.0533220  34.1483270  75.4458930  69.2975960  35.5731020
  76.9104820  54.3372790  33.4505000  77.4397580  53.5502590  33.3212950
  77.5433140  55.0163980  33.6840530  79.1042660  54.0747930  36.5050390
  78.4745400  53.3735240  36.6720520  78.5647800  54.8352060  36.2883550
  82.0434610  70.6887160  49.1761000  82.9701920  70.4531430  49.2196960
  82.0285040  71.5159160  48.6947030  79.2298220  53.3531910  48.9402880
  78.9482490  53.8565510  48.1763700  79.6117920  52.5553660  48.5745010
  78.1207320  70.6207570  33.7270560  78.8526140  70.3366850  33.1794450
  78.3800990  70.3820850  34.6169940  77.2822110  66.7372300  33.7316890
  76.6530990  67.2057400  34.2802720  77.3969940  65.8921520  34.1663080
  85.8313680  52.7685490  49.5183350  85.7179130  53.0880100  50.4134870
  86.6483420  53.1698000  49.2220630  84.7371830  60.7877960  19.8818090
  84.6565880  59.8732570  19.6109800  84.3236250  61.2845030  19.1757800
  82.8689870  62.5656980  21.7627360  82.0931970  62.0857420  22.0525930
  83.5202800  61.8862630  21.5883520  76.8855700  62.8776790  22.6403120
  76.0540580  62.6225500  23.0399630  77.4936680  62.9487560  23.3761040
  76.8656960  66.9116880  22.8361140  77.1685000  66.0214620  22.6571360
  77.6100550  67.4687100  22.6083390  75.2947650  57.8378680  16.4245510
  74.4064350  58.1794650  16.3225390  75.5788840  57.6379000  15.5326340
  73.2580660  60.4384330  22.3085210  73.8296770  59.6706530  22.3088850
  73.2582200  60.7373090  21.3991820  83.1160610  69.2575180  20.1630480
  82.4972050  69.7132680  19.5924920  83.9712390  69.4126640  19.7620180
  82.3098860  65.2414170  21.7697520  82.2407140  64.3004110  21.6086650
  83.0718720  65.3315580  22.3420090  74.5005530  55.8468690  24.0954140
  74.3208370  54.9494440  24.3756900  74.0985610  56.3940560  24.7701090
  83.3404030  58.0484550  21.9966450  83.7168850  57.1756430  21.8840120
  83.2423540  58.3843250  21.1056890  77.4709040  56.4210180  17.4583890
  77.5775790  57.3213910  17.7652650  76.5601400  56.3728150  17.1678540
  75.1192200  58.3429190  22.7036480  75.8002310  58.6067560  23.3223880
  74.8040250  57.5030060  23.0374490  79.3116770  59.3896550  21.7909070
  79.8194990  59.8877520  22.4314090  79.8430010  58.6131750  21.6148430
  77.5952870  54.0295110  26.0572490  77.5971310  54.5467500  25.2518390
  76.7657180  53.5525290  26.0342420  83.9823960  64.1414420  17.5562390
  83.3641230  64.6063870  16.9925110  84.4947210  64.8341900  17.9731900
  78.8455720  63.6690290  24.2345990  78.5125100  64.2959210  24.8767060
  79.0222400  64.1952170  23.4547660  77.2768200  55.7405070  24.0642940
  77.6185010  56.5847120  23.7696810  76.3384010  55.8888810  24.1808280
  78.0574820  65.6371090  26.0495170  78.6748820  66.3122170  25.7679620
  77.1967940  66.0459070  25.9582670  73.3507160  64.8270950  14.9302020
  72.9735140  65.3158050  14.1986920  73.6080230  65.4996230  15.5608550
  80.9596090  53.2287340  20.3887530  81.2671070  52.6734230  19.6723030
  80.0296790  53.3631800  20.2060520  86.5111150  68.9454630  22.6794990
  86.5238310  68.5416920  21.8117250  85.9586370  69.7201920  22.5756420
  85.9096590  63.8484470  24.0077600  86.3265380  63.6344580  23.1731060
  86.6336410  64.1057260  24.5786220  83.3476850  61.2936170  17.1247650
  82.4206130  61.2273550  17.3536120  83.5001670  62.2316300  17.0102890
  83.3345930  57.5653170  14.1214810  82.3949600  57.7267130  14.2067270
  83.6529190  58.2838850  13.5750800  87.3774140  62.8556470  17.6282900
  86.7586560  62.5176020  16.9809200  87.3598590  62.2116230  18.3362090
  86.8200700  59.0341010  25.0448710  86.4071880  59.8594720  25.2988700
  86.0876650  58.4486050  24.8525070  78.9533490  61.8200910  19.9067380
  78.5490490  61.1078160  19.4113280  79.0396610  61.4754150  20.7955420
  79.4215190  65.5068470  22.0706590  79.1243480  64.9013940  21.3914370
  80.3715010  65.5445780  21.9595950  77.6662110  58.5944120  23.6866420
  78.2176700  58.7039460  22.9119670  78.1805620  58.9681720  24.4021650
  78.5133620  65.2450160  28.7214390  77.6162150  65.4690130  28.9687790
  78.5386490  65.3685100  27.7725790  85.5538840  62.0943280  14.6355650
  85.9932120  61.2565710  14.4893470  86.2667260  62.7272680  14.7219790
  77.3404840  62.1163480  27.2971760  77.2012610  62.9886280  27.6659160
  76.4586200  61.7736290  27.1519700  83.6634220  67.0339350  18.6036890
  84.1030130  67.7763680  18.1892280  83.6021110  67.2765920  19.5275850
  79.1385190  68.0585180  29.5056910  79.1100620  68.4628130  28.6385340
  78.9750160  67.1295540  29.3428510  75.6538120  60.7145890  17.4074030
  75.5335720  61.4407980  16.7955300  75.3439010  59.9448800  16.9301940
  73.2923490  63.8861030  23.2142670  73.3703910  64.0209800  22.2698390
  73.9065170  63.1776920  23.4070790  74.5371120  65.5861220  19.6248850
  74.1299200  65.7275810  18.7702450  75.4284130  65.3021380  19.4220060
  84.3550000  69.7353130  26.5315900  84.8694670  69.6461140  27.3338330
  83.5119080  70.0812830  26.8243810  86.3304400  70.0208470  15.9599900
  86.1705540  69.7311410  16.8581730  86.1651110  69.2448600  15.4245130
  78.8092780  69.8007000  17.7371520  78.6335260  68.8842540  17.5239320
  77.9548520  70.1594290  17.9769320  86.0330530  67.5296030  14.5197900
  85.3395690  67.5273320  13.8600180  86.7753390  67.1055350  14.0892070
  85.5980460  69.1558740  18.5946390  86.0537410  68.3748120  18.9085010
  85.9372980  69.8665560  19.1387570  73.3483010  64.9275200  25.7537130
  73.5114050  64.4580560  24.9356500  73.8135460  64.4198760  26.4185970
  78.1201780  54.0580960  20.7897700  77.6769930  54.8390500  20.4582220
  78.6786770  54.3810850  21.4968640  82.4071590  56.9249480  26.3933020
  81.9450960  57.1332500  27.2052960  82.0049700  56.1108830  26.0903690
  87.4076100  58.1458430  27.5229680  86.5569690  57.8464180  27.8438750
  87.2477890  58.3900440  26.6113500  84.5025810  59.6460180  29.6228470
  84.8279220  58.8123930  29.2830700  85.2906140  60.1688700  29.7706800
  81.2360600  53.6791660  15.6703530  80.6114780  53.6751530  16.3956840
  81.1490720  52.8122620  15.2739500  80.1577680  54.6028290  22.6487300
  80.4550010  55.5091120  22.5679320  80.7063240  54.1147070  22.0346870
  77.9116000  59.1814530  18.5178950  77.6856920  58.9651700  19.4225570
  77.1308530  59.6142990  18.1724920  85.1413760  59.1877900  17.1169600
  84.5422650  59.9113700  16.9333220  85.6893370  59.1254680  16.3346050
  80.3515210  60.0800110  29.1839220  80.2558810  59.1394840  29.0339620
  81.1947190  60.3015180  28.7887290  83.7478630  57.8241440  19.1472880
  84.1408200  58.1413640  18.3341570  84.1095480  56.9453320  19.2617400
  75.4825750  56.4913780  27.3373000  75.0889140  57.3388990  27.5445780
  74.7944150  55.8540150  27.5281640  82.0570800  56.5748750  30.4069740
  81.3669120  56.3820950  31.0415830  82.8003100  56.8583390  30.9394040
  72.7842800  54.4142240  21.3703080  72.4955850  54.9845100  22.0828060
  73.5288560  53.9346690  21.7334310  72.9713030  58.3562360  12.5805800
  72.8887700  59.2993120  12.7220790  72.6196090  58.2137270  11.7018150
  84.3333770  60.4147190  23.2423660  83.6014890  60.9234000  23.5913760
  83.9358110  59.5977170  22.9412440  80.7711160  57.0901390  21.6476150
  80.7747220  56.6491340  20.7980690  81.6662280  57.4118720  21.7547970
  76.6213540  56.9727880  20.6070360  76.2813590  57.4503110  21.3637410
  75.8590860  56.5193000  20.2471460  80.8331310  58.0913470  14.6382910
  80.9544130  58.0499950  15.5868730  80.4479820  58.9537620  14.4829640
  84.7959680  55.8680870  22.6546600  84.8132420  56.3189520  23.4988450
  84.5475260  54.9686510  22.8680040  79.8452810  60.4014610  14.0366210
  79.2769710  59.9532860  13.4102120  80.5541810  60.7607390  13.5031360
  74.9221990  64.3026630  27.9132940  74.5376780  63.6620300  28.5115900
  75.2334180  65.0062750  28.4827670  81.0719130  61.1503170  23.3941560
  81.4389260  60.6761740  24.1402900  80.8824190  62.0244740  23.7349900
  73.9359620  55.8946860  19.5235030  73.6506540  55.5302530  20.3613650
  73.8738480  55.1627320  18.9098170  78.8618500  60.1911810  25.7125770
  78.5575570  61.0703790  25.9376130  79.8164960  60.2511600  25.7483210
  77.3900290  64.3972800  16.3092620  76.6162550  63.8570420  16.1491340
  78.1194920  63.8779410  15.9710380  83.6098210  54.7876120  16.2448400
  82.7962820  54.2889290  16.1693710  83.4160160  55.6274370  15.8284750
  83.5307070  63.4647220  27.9888010  83.4644380  62.5442890  27.7345600
  82.9012210  63.5622660  28.7032650  86.3246600  59.1595770  14.5410560
  87.2126220  59.4713000  14.3661900  86.2951690  58.2868020  14.1491140
  77.4337690  64.0653180  19.9471430  77.9516360  63.2621440  19.8928320
  76.9821710  64.0032320  20.7888260  82.3207190  65.3319460  15.2198730
  82.6622890  66.0761690  14.7242050  81.4919900  65.6450580  15.5823560
  74.9182230  61.0314550  26.8597130  74.5597170  61.6968400  27.4470470
  74.6236790  60.1998100  27.2309750  78.1195350  61.4898790  29.7436680
  77.8195490  61.6355970  28.8464500  78.8906590  60.9304080  29.6510070
  83.4623800  66.2867790  27.7391810  83.4768340  65.3548750  27.5210720
  82.7548900  66.3727550  28.3781580  85.2034600  64.6535300  20.5844240
  85.5558420  64.0563430  19.9245610  84.3196930  64.3279530  20.7552490
  81.2897880  65.4132990  17.9914650  81.9769010  65.9602200  18.3722240
  80.5030300  65.9573720  18.0264260  73.4290280  61.0305810  13.4831730
  74.2985130  61.3130610  13.7667650  72.9380600  61.8441680  13.3680540
  80.5925090  62.4179020  17.6040010  81.0487870  63.2284270  17.8300200
  80.2413300  62.1002160  18.4358500  82.8957700  67.9285360  24.8332310
  83.5399920  68.1344740  25.5105730  83.2587140  67.1673760  24.3803160
  76.4936870  52.7616670  18.0762530  76.3651500  52.7534570  19.0247450
  75.6698890  53.0999760  17.7253540  84.1689780  65.9317710  23.5509760
  84.8112010  65.2310870  23.6641930  84.6939130  66.7116150  23.3706650
  85.9427400  66.7312610  26.7545820  86.2783640  67.3179300  27.4323740
  85.0227740  66.6005320  26.9843610  73.7961530  70.2433190  14.0493360
  74.1559170  70.8422530  13.3950630  73.6553870  70.7893080  14.8228390
  73.4930800  54.5207790  27.5369230  72.7789320  54.7204710  28.1421840
  73.9125840  53.7447360  27.9084030  73.7803390  68.5088050  28.5235760
  73.8894510  67.5682790  28.3831150  73.1283950  68.7742800  27.8749490
  81.7715980  66.7803940  29.9233880  81.4512850  66.0613180  30.4679570
  81.0974340  67.4559010  29.9969940  79.8130150  67.6264390  14.8667030
  79.8040250  68.3594080  14.2511540  78.8928510  67.3795970  14.9593990
  75.4136790  62.8479280  15.6113790  74.8064740  63.5878180  15.6209090
  75.8886140  62.9378640  14.7851990  84.9869580  57.0130100  25.2870680
  85.3550400  56.1925310  25.6150250  84.1267780  57.0731990  25.7026330
  82.7989750  67.6892630  13.5292220  82.9001730  67.4856620  12.5994200
  81.8991490  67.4350910  13.7340000  80.3215640  58.2472990  17.5116120
  79.6131790  58.7159330  17.9529730  80.6060120  57.5895000  18.1461310
  81.9471570  59.6669690  25.5108650  82.4456820  60.1415510  26.1760500
  82.0894520  58.7433210  25.7178680  84.3531070  54.9723650  18.9511910
  84.2298850  54.9909780  18.0021420  85.3015630  55.0202590  19.0710310
  81.4407860  70.2078950  18.2239890  81.6949360  70.1700340  17.3019260
  80.4920340  70.0812280  18.2168140  78.5250660  56.5558070  14.8866830
  79.3741190  56.9928220  14.8207020  78.1581930  56.8678330  15.7138890
  77.4242080  62.8090430  13.3602360  78.1905350  62.6971790  13.9227790
  77.5016770  62.1128400  12.7079130  76.1188840  60.2415500  14.0435250
  76.1992430  59.2943010  14.1552650  77.0108590  60.5722380  14.1495910
  76.9203550  70.3910890  21.1469790  77.6566030  69.8426350  21.4178360
  77.3044470  71.2566900  21.0075780  73.8049030  66.4584460  17.0211300
  72.8788810  66.7005600  17.0116710  74.2705460  67.2858720  16.8996050
  75.9261830  69.5756960  30.3355370  76.7274560  69.8969010  30.7490770
  75.4113650  69.2152540  31.0575280  80.0305860  69.5641200  12.9695360
  80.8234470  69.8530030  12.5177150  79.5110210  69.1333370  12.2907840
  84.7626460  65.6836830  30.2830780  84.1564620  65.7068430  29.5426530
  84.4580570  64.9519870  30.8198030  86.1926830  69.4117120  28.8940190
  87.1448580  69.3275140  28.8440430  86.0455050  70.0758830  29.5673980
  73.6459640  62.0630420  29.2791420  74.1498660  61.4837700  29.8507650
  72.9067060  62.3470650  29.8167790  80.5483260  64.7844610  12.8337710
  80.4433900  64.1696960  13.5599090  80.3807480  64.2610500  12.0500720
  80.6997580  63.4701410  28.8126940  79.9343250  64.0386410  28.7281610
  80.8813540  63.1777620  27.9195170  83.7885990  63.8464640  13.4379700
  83.2396090  64.2933940  14.0822440  84.4105250  63.3413890  13.9617370
  75.6782720  60.2060010  30.1741490  75.7188060  59.9073880  31.0826720
  76.5328220  60.6067620  30.0149010  79.4561110  62.8055560  15.3345000
  79.8777530  62.6395430  16.1776390  79.5811950  61.9955790  14.8400140
  77.6188530  58.7852110  28.1415980  77.0884990  58.2943060  27.5139320
  78.2876600  59.2136310  27.6073910  81.9688750  61.8293170  12.5822100
  82.4894410  61.1142190  12.2163250  82.6157150  62.4679040  12.8822610
  86.5166590  63.2521570  27.9057170  86.9307610  63.4066650  28.7547590
  85.5817590  63.3776790  28.0682950  78.1060830  55.7514480  28.2213270
  78.0117700  55.1335230  27.4964140  77.5258220  56.4780770  27.9943180
  80.8722270  54.3087720  25.2540660  80.4239570  54.3311980  24.4086210
  80.2387470  53.9106740  25.8510960  81.2781820  63.2042050  25.8753100
  81.6969930  64.0474780  25.7029340  80.3590450  63.3414090  25.6459880
  83.6145720  60.9358230  27.2590940  83.7341930  60.3399370  27.9985780
  84.4739720  60.9727920  26.8392240  85.9533620  61.4895420  25.8353450
  85.4268840  62.0138040  25.2318590  86.2964960  62.1222810  26.4663180
  78.3520010  58.8788790  12.2803160  78.1509070  58.0156150  12.6416500
  78.1812060  58.7922150  11.3424760  79.1289240  69.5095060  26.9910830
  78.5910330  70.2341120  26.6719530  79.3823200  69.0325400  26.2008170
  80.3814490  57.4779580  28.5166760  80.9714180  57.1695430  29.2044580
  79.5634730  57.0059330  28.6726660  85.2007920  57.0945390  28.7499780
  84.5123440  56.4326930  28.6849770  85.9213940  56.6483660  29.1948240
  85.8308320  53.6897020  14.8090040  86.1110610  52.8464920  15.1649460
  85.0574050  53.9220130  15.3228790  77.1502810  55.9789410  12.2681040
  77.4528710  55.9856840  11.3600190  77.8897400  55.6287270  12.7648700
  81.9851450  70.7446270  27.2497480  81.9110150  71.6481410  27.5569850
  81.0830290  70.4258170  27.2219550  80.3687740  54.9224030  13.2537240
  80.0209740  54.2448020  12.6739690  80.5700510  54.4613540  14.0680630
  82.5336780  69.9104780  14.8723840  83.4287570  70.2489750  14.8942600
  82.5654410  69.1884190  14.2448120  76.1732940  65.2831830  13.1010840
  76.6107810  65.8261500  13.7568420  76.6580670  64.4578780  13.1107180
  73.3878740  68.0720860  20.5531100  73.7181750  67.2041920  20.3209740
  73.8169740  68.2779380  21.3836060  77.9840660  66.4029870  18.2133070
  77.6836200  66.2794840  19.1136980  77.8778150  65.5438460  17.8048800
  73.8768950  68.9391450  23.2912730  73.4399940  69.1192250  24.1236880
  74.4446630  69.6966070  23.1494450  73.7093380  61.4511680  19.6501610
  73.0542220  61.1823320  19.0061310  74.5471330  61.3416160  19.2003590
  86.6583820  56.2452970  13.8720100  87.0768700  56.0583950  13.0316760
  86.3519880  55.3932020  14.1823030  74.7469310  61.8364250  24.1904950
  75.1142350  61.7491650  25.0700970  74.1780130  61.0730800  24.0911810
  74.2985310  58.7473340  28.0963370  73.4041360  58.7140100  28.4357080
  74.8382860  58.9460130  28.8614620  72.9231460  58.6610610  15.5926940
  72.0195540  58.9240810  15.4178600  73.4072080  58.9321780  14.8126900
  75.4658670  57.7176150  13.5021320  76.1750370  57.2959370  13.0168600
  74.7498610  57.7851380  12.8704670  75.1132830  53.7715480  12.5423970
  75.8360960  54.3124420  12.8605190  75.3857350  53.4978900  11.6665510
  74.8025020  53.0221670  22.4446590  75.4501210  52.4719050  22.0041750
  75.2226860  53.2764820  23.2662400  74.5557020  53.1777340  25.1871910
  74.2071840  53.6341160  25.9530090  74.2244720  52.2834470  25.2694340
  76.1621390  66.3496940  29.3525100  76.1191020  65.9789850  30.2339560
  76.2932400  67.2874510  29.4926920  79.8627420  67.9056530  24.9534820
  79.6218780  68.1731090  24.0665340  80.8030060  68.0762260  25.0085680
  82.0681840  54.3689220  28.7091330  82.0070730  54.9611050  29.4586740
  83.0082220  54.2615180  28.5641590  84.7056400  54.0259280  28.3483620
  85.3196810  54.3438570  27.6864700  85.2505960  53.5407870  28.9679480
  75.2277660  52.7053540  28.4622680  75.7760650  52.5241590  27.6988790
  75.2932970  51.9147650  28.9978990  76.0009420  69.2959190  26.4722880
  75.4069740  69.1643890  27.2112920  75.9933260  68.4597330  26.0064980
  85.4464440  52.5891420  24.6752910  84.5724280  52.9226530  24.4725840
  85.3375190  52.1164600  25.5004780  86.3536420  54.7962290  26.0594630
  86.0249780  53.9814050  25.6796360  87.3018720  54.7532100  25.9360320
  75.6321650  66.6617570  25.4230920  74.9055710  66.0422860  25.3556870
  75.6930800  67.0558180  24.5529000  79.2366750  68.8762570  22.2080330
  79.7531770  68.2649930  21.6828590  79.8864130  69.3791350  22.6991340
  81.9762250  69.7671060  23.0349310  82.2640060  69.5125360  22.1582320
  82.4885470  69.2148420  23.6254880  83.1939260  53.5061260  23.6145820
  82.4111050  53.9806760  23.8942580  82.9002190  52.6016090  23.5059000
  73.9151650  69.9791960  18.6327680  73.7473690  69.3462640  19.3309570
  73.0486160  70.1851360  18.2821870  74.5379670  53.8108740  16.1359540
  75.2959030  53.9237620  15.5623570  74.0756840  54.6477940  16.0902970
  81.0793480  55.9248010  19.1261850  80.2667990  55.5504900  18.7857730
  81.5835120  55.1693090  19.4283040  85.5818460  52.5890460  20.3644920
  86.1847830  53.1610670  20.8393440  84.8411450  53.1529900  20.1418820
  75.5214350  68.6725190  16.0777820  74.9961970  69.0533220  15.3739780
  75.4458930  69.2975960  16.7987530  76.9104820  54.3372790  14.6761510
  77.4397580  53.5502590  14.5469460  77.5433140  55.0163980  14.9097040
  79.1042660  54.0747930  17.7306900  78.4745400  53.3735240  17.8977030
  78.5647800  54.8352060  17.5140060  82.0434610  70.6887160  30.4017510
  82.9701920  70.4531430  30.4453470  82.0285040  71.5159160  29.9203540
  79.2298220  53.3531910  30.1659390  78.9482490  53.8565510  29.4020210
  79.6117920  52.5553660  29.8001520  78.1207320  70.6207570  14.9527070
  78.8526140  70.3366850  14.4050960  78.3800990  70.3820850  15.8426450
  77.2822110  66.7372300  14.9573400  76.6530990  67.2057400  15.5059230
  77.3969940  65.8921520  15.3919590  85.8313680  52.7685490  30.7439860
  85.7179130  53.0880100  31.6391380  86.6483420  53.1698000  30.4477140
  82.8689870  62.5656980   2.9883870  82.0931970  62.0857420   3.2782440
  83.5202800  61.8862630   2.8140030  76.8855700  62.8776790   3.8659630
  76.0540580  62.6225500   4.2656140  77.4936680  62.9487560   4.6017550
  76.8656960  66.9116880   4.0617650  77.1685000  66.0214620   3.8827870
  77.6100550  67.4687100   3.8339900  73.2580660  60.4384330   3.5341720
  73.8296770  59.6706530   3.5345360  73.2582200  60.7373090   2.6248330
  82.3098860  65.2414170   2.9954030  82.2407140  64.3004110   2.8343160
  83.0718720  65.3315580   3.5676600  74.5005530  55.8468690   5.3210650
  74.3208370  54.9494440   5.6013410  74.0985610  56.3940560   5.9957600
  83.3404030  58.0484550   3.2222960  83.7168850  57.1756430   3.1096630
  83.2423540  58.3843250   2.3313400  75.1192200  58.3429190   3.9292990
  75.8002310  58.6067560   4.5480390  74.8040250  57.5030060   4.2631000
  79.3116770  59.3896550   3.0165580  79.8194990  59.8877520   3.6570600
  79.8430010  58.6131750   2.8404940  77.5952870  54.0295110   7.2829000
  77.5971310  54.5467500   6.4774900  76.7657180  53.5525290   7.2598930
  78.8455720  63.6690290   5.4602500  78.5125100  64.2959210   6.1023570
  79.0222400  64.1952170   4.6804170  77.2768200  55.7405070   5.2899450
  77.6185010  56.5847120   4.9953320  76.3384010  55.8888810   5.4064790
  78.0574820  65.6371090   7.2751680  78.6748820  66.3122170   6.9936130
  77.1967940  66.0459070   7.1839180  86.5111150  68.9454630   3.9051500
  86.5238310  68.5416920   3.0373760  85.9586370  69.7201920   3.8012930
  85.9096590  63.8484470   5.2334110  86.3265380  63.6344580   4.3987570
  86.6336410  64.1057260   5.8042730  86.8200700  59.0341010   6.2705220
  86.4071880  59.8594720   6.5245210  86.0876650  58.4486050   6.0781580
  79.4215190  65.5068470   3.2963100  79.1243480  64.9013940   2.6170880
  80.3715010  65.5445780   3.1852460  77.6662110  58.5944120   4.9122930
  78.2176700  58.7039460   4.1376180  78.1805620  58.9681720   5.6278160
  78.5133620  65.2450160   9.9470900  77.6162150  65.4690130  10.1944300
  78.5386490  65.3685100   8.9982300  77.3404840  62.1163480   8.5228270
  77.2012610  62.9886280   8.8915670  76.4586200  61.7736290   8.3776210
  79.1385190  68.0585180  10.7313420  79.1100620  68.4628130   9.8641850
  78.9750160  67.1295540  10.5685020  73.2923490  63.8861030   4.4399180
  73.3703910  64.0209800   3.4954900  73.9065170  63.1776920   4.6327300
  84.3550000  69.7353130   7.7572410  84.8694670  69.6461140   8.5594840
  83.5119080  70.0812830   8.0500320  73.3483010  64.9275200   6.9793640
  73.5114050  64.4580560   6.1613010  73.8135460  64.4198760   7.6442480
  78.1201780  54.0580960   2.0154210  77.6769930  54.8390500   1.6838730
  78.6786770  54.3810850   2.7225150  82.4071590  56.9249480   7.6189530
  81.9450960  57.1332500   8.4309470  82.0049700  56.1108830   7.3160200
  87.4076100  58.1458430   8.7486190  86.5569690  57.8464180   9.0695260
  87.2477890  58.3900440   7.8370010  84.5025810  59.6460180  10.8484980
  84.8279220  58.8123930  10.5087210  85.2906140  60.1688700  10.9963310
  80.1577680  54.6028290   3.8743810  80.4550010  55.5091120   3.7935830
  80.7063240  54.1147070   3.2603380  80.3515210  60.0800110  10.4095730
  80.2558810  59.1394840  10.2596130  81.1947190  60.3015180  10.0143800
  75.4825750  56.4913780   8.5629510  75.0889140  57.3388990   8.7702290
  74.7944150  55.8540150   8.7538150  82.0570800  56.5748750  11.6326250
  81.3669120  56.3820950  12.2672340  82.8003100  56.8583390  12.1650550
  72.7842800  54.4142240   2.5959590  72.4955850  54.9845100   3.3084570
  73.5288560  53.9346690   2.9590820  84.3333770  60.4147190   4.4680170
  83.6014890  60.9234000   4.8170270  83.9358110  59.5977170   4.1668950
  80.7711160  57.0901390   2.8732660  80.7747220  56.6491340   2.0237200
  81.6662280  57.4118720   2.9804480  84.7959680  55.8680870   3.8803110
  84.8132420  56.3189520   4.7244960  84.5475260  54.9686510   4.0936550
  74.9221990  64.3026630   9.1389450  74.5376780  63.6620300   9.7372410
  75.2334180  65.0062750   9.7084180  81.0719130  61.1503170   4.6198070
  81.4389260  60.6761740   5.3659410  80.8824190  62.0244740   4.9606410
  78.8618500  60.1911810   6.9382280  78.5575570  61.0703790   7.1632640
  79.8164960  60.2511600   6.9739720  83.5307070  63.4647220   9.2144520
  83.4644380  62.5442890   8.9602110  82.9012210  63.5622660   9.9289160
  74.9182230  61.0314550   8.0853640  74.5597170  61.6968400   8.6726980
  74.6236790  60.1998100   8.4566260  78.1195350  61.4898790  10.9693190
  77.8195490  61.6355970  10.0721010  78.8906590  60.9304080  10.8766580
  83.4623800  66.2867790   8.9648320  83.4768340  65.3548750   8.7467230
  82.7548900  66.3727550   9.6038090  82.8957700  67.9285360   6.0588820
  83.5399920  68.1344740   6.7362240  83.2587140  67.1673760   5.6059670
  84.1689780  65.9317710   4.7766270  84.8112010  65.2310870   4.8898440
  84.6939130  66.7116150   4.5963160  85.9427400  66.7312610   7.9802330
  86.2783640  67.3179300   8.6580250  85.0227740  66.6005320   8.2100120
  73.4930800  54.5207790   8.7625740  72.7789320  54.7204710   9.3678350
  73.9125840  53.7447360   9.1340540  73.7803390  68.5088050   9.7492270
  73.8894510  67.5682790   9.6087660  73.1283950  68.7742800   9.1006000
  81.7715980  66.7803940  11.1490390  81.4512850  66.0613180  11.6936080
  81.0974340  67.4559010  11.2226450  84.9869580  57.0130100   6.5127190
  85.3550400  56.1925310   6.8406760  84.1267780  57.0731990   6.9282840
  81.9471570  59.6669690   6.7365160  82.4456820  60.1415510   7.4017010
  82.0894520  58.7433210   6.9435190  76.9203550  70.3910890   2.3726300
  77.6566030  69.8426350   2.6434870  77.3044470  71.2566900   2.2332290
  75.9261830  69.5756960  11.5611880  76.7274560  69.8969010  11.9747280
  75.4113650  69.2152540  12.2831790  84.7626460  65.6836830  11.5087290
  84.1564620  65.7068430  10.7683040  84.4580570  64.9519870  12.0454540
  86.1926830  69.4117120  10.1196700  87.1448580  69.3275140  10.0696940
  86.0455050  70.0758830  10.7930490  73.6459640  62.0630420  10.5047930
  74.1498660  61.4837700  11.0764160  72.9067060  62.3470650  11.0424300
  80.6997580  63.4701410  10.0383450  79.9343250  64.0386410   9.9538120
  80.8813540  63.1777620   9.1451680  75.6782720  60.2060010  11.3998000
  75.7188060  59.9073880  12.3083230  76.5328220  60.6067620  11.2405520
  77.6188530  58.7852110   9.3672490  77.0884990  58.2943060   8.7395830
  78.2876600  59.2136310   8.8330420  86.5166590  63.2521570   9.1313680
  86.9307610  63.4066650   9.9804100  85.5817590  63.3776790   9.2939460
  78.1060830  55.7514480   9.4469780  78.0117700  55.1335230   8.7220650
  77.5258220  56.4780770   9.2199690  80.8722270  54.3087720   6.4797170
  80.4239570  54.3311980   5.6342720  80.2387470  53.9106740   7.0767470
  81.2781820  63.2042050   7.1009610  81.6969930  64.0474780   6.9285850
  80.3590450  63.3414090   6.8716390  83.6145720  60.9358230   8.4847450
  83.7341930  60.3399370   9.2242290  84.4739720  60.9727920   8.0648750
  85.9533620  61.4895420   7.0609960  85.4268840  62.0138040   6.4575100
  86.2964960  62.1222810   7.6919690  79.1289240  69.5095060   8.2167340
  78.5910330  70.2341120   7.8976040  79.3823200  69.0325400   7.4264680
  80.3814490  57.4779580   9.7423270  80.9714180  57.1695430  10.4301090
  79.5634730  57.0059330   9.8983170  85.2007920  57.0945390   9.9756290
  84.5123440  56.4326930   9.9106280  85.9213940  56.6483660  10.4204750
  81.9851450  70.7446270   8.4753990  81.9110150  71.6481410   8.7826360
  81.0830290  70.4258170   8.4476060  73.8768950  68.9391450   4.5169240
  73.4399940  69.1192250   5.3493390  74.4446630  69.6966070   4.3750960
  74.7469310  61.8364250   5.4161460  75.1142350  61.7491650   6.2957480
  74.1780130  61.0730800   5.3168320  74.2985310  58.7473340   9.3219880
  73.4041360  58.7140100   9.6613590  74.8382860  58.9460130  10.0871130
  74.8025020  53.0221670   3.6703100  75.4501210  52.4719050   3.2298260
  75.2226860  53.2764820   4.4918910  74.5557020  53.1777340   6.4128420
  74.2071840  53.6341160   7.1786600  74.2244720  52.2834470   6.4950850
  76.1621390  66.3496940  10.5781610  76.1191020  65.9789850  11.4596070
  76.2932400  67.2874510  10.7183430  79.8627420  67.9056530   6.1791330
  79.6218780  68.1731090   5.2921850  80.8030060  68.0762260   6.2342190
  82.0681840  54.3689220   9.9347840  82.0070730  54.9611050  10.6843250
  83.0082220  54.2615180   9.7898100  84.7056400  54.0259280   9.5740130
  85.3196810  54.3438570   8.9121210  85.2505960  53.5407870  10.1935990
  75.2277660  52.7053540   9.6879190  75.7760650  52.5241590   8.9245300
  75.2932970  51.9147650  10.2235500  76.0009420  69.2959190   7.6979390
  75.4069740  69.1643890   8.4369430  75.9933260  68.4597330   7.2321490
  85.4464440  52.5891420   5.9009420  84.5724280  52.9226530   5.6982350
  85.3375190  52.1164600   6.7261290  86.3536420  54.7962290   7.2851140
  86.0249780  53.9814050   6.9052870  87.3018720  54.7532100   7.1616830
  75.6321650  66.6617570   6.6487430  74.9055710  66.0422860   6.5813380
  75.6930800  67.0558180   5.7785510  79.2366750  68.8762570   3.4336840
  79.7531770  68.2649930   2.9085100  79.8864130  69.3791350   3.9247850
  81.9762250  69.7671060   4.2605820  82.2640060  69.5125360   3.3838830
  82.4885470  69.2148420   4.8511390  83.1939260  53.5061260   4.8402330
  82.4111050  53.9806760   5.1199090  82.9002190  52.6016090   4.7315510
  82.0434610  70.6887160  11.6274020  82.9701920  70.4531430  11.6709980
  82.0285040  71.5159160  11.1460050  79.2298220  53.3531910  11.3915900
  78.9482490  53.8565510  10.6276720  79.6117920  52.5553660  11.0258030
  85.8313680  52.7685490  11.9696370  85.7179130  53.0880100  12.8647890
  86.6483420  53.1698000  11.6733650  84.7371830  42.0134470  76.2048560
  84.6565880  41.0989080  75.9340270  84.3236250  42.5101540  75.4988270
  82.8689870  43.7913490  78.0857830  82.0931970  43.3113930  78.3756400
  83.5202800  43.1119140  77.9113990  75.2947650  39.0635190  72.7475980
  74.4064350  39.4051160  72.6455860  75.5788840  38.8635510  71.8556810
  73.2580660  41.6640840  78.6315680  73.8296770  40.8963040  78.6319320
  73.2582200  41.9629600  77.7222290  83.1160610  50.4831690  76.4860950
  82.4972050  50.9389190  75.9155390  83.9712390  50.6383150  76.0850650
  82.3098860  46.4670680  78.0927990  82.2407140  45.5260620  77.9317120
  83.0718720  46.5572090  78.6650560  83.3404030  39.2741060  78.3196920
  83.7168850  38.4012940  78.2070590  83.2423540  39.6099760  77.4287360
  77.4709040  37.6466690  73.7814360  77.5775790  38.5470420  74.0883120
  76.5601400  37.5984660  73.4909010  79.3116770  40.6153060  78.1139540
  79.8194990  41.1134030  78.7544560  79.8430010  39.8388260  77.9378900
  83.9823960  45.3670930  73.8792860  83.3641230  45.8320380  73.3155580
  84.4947210  46.0598410  74.2962370  73.3507160  46.0527460  71.2532490
  72.9735140  46.5414560  70.5217390  73.6080230  46.7252740  71.8839020
  80.9596090  34.4543850  76.7118000  81.2671070  33.8990740  75.9953500
  80.0296790  34.5888310  76.5290990  83.3476850  42.5192680  73.4478120
  82.4206130  42.4530060  73.6766590  83.5001670  43.4572810  73.3333360
  83.3345930  38.7909680  70.4445280  82.3949600  38.9523640  70.5297740
  83.6529190  39.5095360  69.8981270  87.3774140  44.0812980  73.9513370
  86.7586560  43.7432530  73.3039670  87.3598590  43.4372740  74.6592560
  78.9533490  43.0457420  76.2297850  78.5490490  42.3334670  75.7343750
  79.0396610  42.7010660  77.1185890  79.4215190  46.7324980  78.3937060
  79.1243480  46.1270450  77.7144840  80.3715010  46.7702290  78.2826420
  85.5538840  43.3199790  70.9586120  85.9932120  42.4822220  70.8123940
  86.2667260  43.9529190  71.0450260  83.6634220  48.2595860  74.9267360
  84.1030130  49.0020190  74.5122750  83.6021110  48.5022430  75.8506320
  75.6538120  41.9402400  73.7304500  75.5335720  42.6664490  73.1185770
  75.3439010  41.1705310  73.2532410  74.5371120  46.8117730  75.9479320
  74.1299200  46.9532320  75.0932920  75.4284130  46.5277890  75.7450530
  86.3304400  51.2464980  72.2830370  86.1705540  50.9567920  73.1812200
  86.1651110  50.4705110  71.7475600  78.8092780  51.0263510  74.0601990
  78.6335260  50.1099050  73.8469790  77.9548520  51.3850800  74.2999790
  86.0330530  48.7552540  70.8428370  85.3395690  48.7529830  70.1830650
  86.7753390  48.3311860  70.4122540  85.5980460  50.3815250  74.9176860
  86.0537410  49.6004630  75.2315480  85.9372980  51.0922070  75.4618040
  78.1201780  35.2837470  77.1128170  77.6769930  36.0647010  76.7812690
  78.6786770  35.6067360  77.8199110  81.2360600  34.9048170  71.9934000
  80.6114780  34.9008040  72.7187310  81.1490720  34.0379130  71.5969970
  77.9116000  40.4071040  74.8409420  77.6856920  40.1908210  75.7456040
  77.1308530  40.8399500  74.4955390  85.1413760  40.4134410  73.4400070
  84.5422650  41.1370210  73.2563690  85.6893370  40.3511190  72.6576520
  83.7478630  39.0497950  75.4703350  84.1408200  39.3670150  74.6572040
  84.1095480  38.1709830  75.5847870  72.7842800  35.6398750  77.6933550
  72.4955850  36.2101610  78.4058530  73.5288560  35.1603200  78.0564780
  72.9713030  39.5818870  68.9036270  72.8887700  40.5249630  69.0451260
  72.6196090  39.4393780  68.0248620  80.7711160  38.3157900  77.9706620
  80.7747220  37.8747850  77.1211160  81.6662280  38.6375230  78.0778440
  76.6213540  38.1984390  76.9300830  76.2813590  38.6759620  77.6867880
  75.8590860  37.7449510  76.5701930  80.8331310  39.3169980  70.9613380
  80.9544130  39.2756460  71.9099200  80.4479820  40.1794130  70.8060110
  79.8452810  41.6271120  70.3596680  79.2769710  41.1789370  69.7332590
  80.5541810  41.9863900  69.8261830  73.9359620  37.1203370  75.8465500
  73.6506540  36.7559040  76.6844120  73.8738480  36.3883830  75.2328640
  77.3900290  45.6229310  72.6323090  76.6162550  45.0826930  72.4721810
  78.1194920  45.1035920  72.2940850  83.6098210  36.0132630  72.5678870
  82.7962820  35.5145800  72.4924180  83.4160160  36.8530880  72.1515220
  86.3246600  40.3852280  70.8641030  87.2126220  40.6969510  70.6892370
  86.2951690  39.5124530  70.4721610  77.4337690  45.2909690  76.2701900
  77.9516360  44.4877950  76.2158790  76.9821710  45.2288830  77.1118730
  82.3207190  46.5575970  71.5429200  82.6622890  47.3018200  71.0472520
  81.4919900  46.8707090  71.9054030  85.2034600  45.8791810  76.9074710
  85.5558420  45.2819940  76.2476080  84.3196930  45.5536040  77.0782960
  81.2897880  46.6389500  74.3145120  81.9769010  47.1858710  74.6952710
  80.5030300  47.1830230  74.3494730  73.4290280  42.2562320  69.8062200
  74.2985130  42.5387120  70.0898120  72.9380600  43.0698190  69.6911010
  80.5925090  43.6435530  73.9270480  81.0487870  44.4540780  74.1530670
  80.2413300  43.3258670  74.7588970  76.4936870  33.9873180  74.3993000
  76.3651500  33.9791080  75.3477920  75.6698890  34.3256270  74.0484010
  73.7961530  51.4689700  70.3723830  74.1559170  52.0679040  69.7181100
  73.6553870  52.0149590  71.1458860  79.8130150  48.8520900  71.1897500
  79.8040250  49.5850590  70.5742010  78.8928510  48.6052480  71.2824460
  75.4136790  44.0735790  71.9344260  74.8064740  44.8134690  71.9439560
  75.8886140  44.1635150  71.1082460  82.7989750  48.9149140  69.8522690
  82.9001730  48.7113130  68.9224670  81.8991490  48.6607420  70.0570470
  80.3215640  39.4729500  73.8346590  79.6131790  39.9415840  74.2760200
  80.6060120  38.8151510  74.4691780  84.3531070  36.1980160  75.2742380
  84.2298850  36.2166290  74.3251890  85.3015630  36.2459100  75.3940780
  81.4407860  51.4335460  74.5470360  81.6949360  51.3956850  73.6249730
  80.4920340  51.3068790  74.5398610  78.5250660  37.7814580  71.2097300
  79.3741190  38.2184730  71.1437490  78.1581930  38.0934840  72.0369360
  77.4242080  44.0346940  69.6832830  78.1905350  43.9228300  70.2458260
  77.5016770  43.3384910  69.0309600  76.1188840  41.4672010  70.3665720
  76.1992430  40.5199520  70.4783120  77.0108590  41.7978890  70.4726380
  76.9203550  51.6167400  77.4700260  77.6566030  51.0682860  77.7408830
  77.3044470  52.4823410  77.3306250  73.8049030  47.6840970  73.3441770
  72.8788810  47.9262110  73.3347180  74.2705460  48.5115230  73.2226520
  80.0305860  50.7897710  69.2925830  80.8234470  51.0786540  68.8407620
  79.5110210  50.3589880  68.6138310  80.5483260  46.0101120  69.1568180
  80.4433900  45.3953470  69.8829560  80.3807480  45.4867010  68.3731190
  83.7885990  45.0721150  69.7610170  83.2396090  45.5190450  70.4052910
  84.4105250  44.5670400  70.2847840  79.4561110  44.0312070  71.6575470
  79.8777530  43.8651940  72.5006860  79.5811950  43.2212300  71.1630610
  81.9688750  43.0549680  68.9052570  82.4894410  42.3398700  68.5393720
  82.6157150  43.6935550  69.2053080  78.3520010  40.1045300  68.6033630
  78.1509070  39.2412660  68.9646970  78.1812060  40.0178660  67.6655230
  85.8308320  34.9153530  71.1320510  86.1110610  34.0721430  71.4879930
  85.0574050  35.1476640  71.6459260  77.1502810  37.2045920  68.5911510
  77.4528710  37.2113350  67.6830660  77.8897400  36.8543780  69.0879170
  80.3687740  36.1480540  69.5767710  80.0209740  35.4704530  68.9970160
  80.5700510  35.6870050  70.3911100  82.5336780  51.1361290  71.1954310
  83.4287570  51.4746260  71.2173070  82.5654410  50.4140700  70.5678590
  76.1732940  46.5088340  69.4241310  76.6107810  47.0518010  70.0798890
  76.6580670  45.6835290  69.4337650  73.3878740  49.2977370  76.8761570
  73.7181750  48.4298430  76.6440210  73.8169740  49.5035890  77.7066530
  77.9840660  47.6286380  74.5363540  77.6836200  47.5051350  75.4367450
  77.8778150  46.7694970  74.1279270  73.7093380  42.6768190  75.9732080
  73.0542220  42.4079830  75.3291780  74.5471330  42.5672670  75.5234060
  86.6583820  37.4709480  70.1950570  87.0768700  37.2840460  69.3547230
  86.3519880  36.6188530  70.5053500  72.9231460  39.8867120  71.9157410
  72.0195540  40.1497320  71.7409070  73.4072080  40.1578290  71.1357370
  75.4658670  38.9432660  69.8251790  76.1750370  38.5215880  69.3399070
  74.7498610  39.0107890  69.1935140  75.1132830  34.9971990  68.8654440
  75.8360960  35.5380930  69.1835660  75.3857350  34.7235410  67.9895980
  73.9151650  51.2048470  74.9558150  73.7473690  50.5719150  75.6540040
  73.0486160  51.4107870  74.6052340  74.5379670  35.0365250  72.4590010
  75.2959030  35.1494130  71.8854040  74.0756840  35.8734450  72.4133440
  81.0793480  37.1504520  75.4492320  80.2667990  36.7761410  75.1088200
  81.5835120  36.3949600  75.7513510  85.5818460  33.8146970  76.6875390
  86.1847830  34.3867180  77.1623910  84.8411450  34.3786410  76.4649290
  75.5214350  49.8981700  72.4008290  74.9961970  50.2789730  71.6970250
  75.4458930  50.5232470  73.1218000  76.9104820  35.5629300  70.9991980
  77.4397580  34.7759100  70.8699930  77.5433140  36.2420490  71.2327510
  79.1042660  35.3004440  74.0537370  78.4745400  34.5991750  74.2207500
  78.5647800  36.0608570  73.8370530  78.1207320  51.8464080  71.2757540
  78.8526140  51.5623360  70.7281430  78.3800990  51.6077360  72.1656920
  77.2822110  47.9628810  71.2803870  76.6530990  48.4313910  71.8289700
  77.3969940  47.1178030  71.7150060  84.7371830  42.0134470  57.4305070
  84.6565880  41.0989080  57.1596780  84.3236250  42.5101540  56.7244780
  82.8689870  43.7913490  59.3114340  82.0931970  43.3113930  59.6012910
  83.5202800  43.1119140  59.1370500  76.8855700  44.1033300  60.1890100
  76.0540580  43.8482010  60.5886610  77.4936680  44.1744070  60.9248020
  76.8656960  48.1373390  60.3848120  77.1685000  47.2471130  60.2058340
  77.6100550  48.6943610  60.1570370  75.2947650  39.0635190  53.9732490
  74.4064350  39.4051160  53.8712370  75.5788840  38.8635510  53.0813320
  73.2580660  41.6640840  59.8572190  73.8296770  40.8963040  59.8575830
  73.2582200  41.9629600  58.9478800  83.1160610  50.4831690  57.7117460
  82.4972050  50.9389190  57.1411900  83.9712390  50.6383150  57.3107160
  82.3098860  46.4670680  59.3184500  82.2407140  45.5260620  59.1573630
  83.0718720  46.5572090  59.8907070  74.5005530  37.0725200  61.6441120
  74.3208370  36.1750950  61.9243880  74.0985610  37.6197070  62.3188070
  83.3404030  39.2741060  59.5453430  83.7168850  38.4012940  59.4327100
  83.2423540  39.6099760  58.6543870  77.4709040  37.6466690  55.0070870
  77.5775790  38.5470420  55.3139630  76.5601400  37.5984660  54.7165520
  75.1192200  39.5685700  60.2523460  75.8002310  39.8324070  60.8710860
  74.8040250  38.7286570  60.5861470  79.3116770  40.6153060  59.3396050
  79.8194990  41.1134030  59.9801070  79.8430010  39.8388260  59.1635410
  77.5952870  35.2551620  63.6059470  77.5971310  35.7724010  62.8005370
  76.7657180  34.7781800  63.5829400  83.9823960  45.3670930  55.1049370
  83.3641230  45.8320380  54.5412090  84.4947210  46.0598410  55.5218880
  78.8455720  44.8946800  61.7832970  78.5125100  45.5215720  62.4254040
  79.0222400  45.4208680  61.0034640  77.2768200  36.9661580  61.6129920
  77.6185010  37.8103630  61.3183790  76.3384010  37.1145320  61.7295260
  78.0574820  46.8627600  63.5982150  78.6748820  47.5378680  63.3166600
  77.1967940  47.2715580  63.5069650  80.9596090  34.4543850  57.9374510
  81.2671070  33.8990740  57.2210010  80.0296790  34.5888310  57.7547500
  86.5111150  50.1711140  60.2281970  86.5238310  49.7673430  59.3604230
  85.9586370  50.9458430  60.1243400  85.9096590  45.0740980  61.5564580
  86.3265380  44.8601090  60.7218040  86.6336410  45.3313770  62.1273200
  83.3476850  42.5192680  54.6734630  82.4206130  42.4530060  54.9023100
  83.5001670  43.4572810  54.5589870  83.3345930  38.7909680  51.6701790
  82.3949600  38.9523640  51.7554250  83.6529190  39.5095360  51.1237780
  87.3774140  44.0812980  55.1769880  86.7586560  43.7432530  54.5296180
  87.3598590  43.4372740  55.8849070  86.8200700  40.2597520  62.5935690
  86.4071880  41.0851230  62.8475680  86.0876650  39.6742560  62.4012050
  78.9533490  43.0457420  57.4554360  78.5490490  42.3334670  56.9600260
  79.0396610  42.7010660  58.3442400  79.4215190  46.7324980  59.6193570
  79.1243480  46.1270450  58.9401350  80.3715010  46.7702290  59.5082930
  77.6662110  39.8200630  61.2353400  78.2176700  39.9295970  60.4606650
  78.1805620  40.1938230  61.9508630  78.5133620  46.4706670  66.2701370
  77.6162150  46.6946640  66.5174770  78.5386490  46.5941610  65.3212770
  85.5538840  43.3199790  52.1842630  85.9932120  42.4822220  52.0380450
  86.2667260  43.9529190  52.2706770  77.3404840  43.3419990  64.8458740
  77.2012610  44.2142790  65.2146140  76.4586200  42.9992800  64.7006680
  83.6634220  48.2595860  56.1523870  84.1030130  49.0020190  55.7379260
  83.6021110  48.5022430  57.0762830  79.1385190  49.2841690  67.0543890
  79.1100620  49.6884640  66.1872320  78.9750160  48.3552050  66.8915490
  75.6538120  41.9402400  54.9561010  75.5335720  42.6664490  54.3442280
  75.3439010  41.1705310  54.4788920  73.2923490  45.1117540  60.7629650
  73.3703910  45.2466310  59.8185370  73.9065170  44.4033430  60.9557770
  74.5371120  46.8117730  57.1735830  74.1299200  46.9532320  56.3189430
  75.4284130  46.5277890  56.9707040  84.3550000  50.9609640  64.0802880
  84.8694670  50.8717650  64.8825310  83.5119080  51.3069340  64.3730790
  86.3304400  51.2464980  53.5086880  86.1705540  50.9567920  54.4068710
  86.1651110  50.4705110  52.9732110  78.8092780  51.0263510  55.2858500
  78.6335260  50.1099050  55.0726300  77.9548520  51.3850800  55.5256300
  86.0330530  48.7552540  52.0684880  85.3395690  48.7529830  51.4087160
  86.7753390  48.3311860  51.6379050  85.5980460  50.3815250  56.1433370
  86.0537410  49.6004630  56.4571990  85.9372980  51.0922070  56.6874550
  73.3483010  46.1531710  63.3024110  73.5114050  45.6837070  62.4843480
  73.8135460  45.6455270  63.9672950  78.1201780  35.2837470  58.3384680
  77.6769930  36.0647010  58.0069200  78.6786770  35.6067360  59.0455620
  82.4071590  38.1505990  63.9420000  81.9450960  38.3589010  64.7539940
  82.0049700  37.3365340  63.6390670  87.4076100  39.3714940  65.0716660
  86.5569690  39.0720690  65.3925730  87.2477890  39.6156950  64.1600480
  84.5025810  40.8716690  67.1715450  84.8279220  40.0380440  66.8317680
  85.2906140  41.3945210  67.3193780  81.2360600  34.9048170  53.2190510
  80.6114780  34.9008040  53.9443820  81.1490720  34.0379130  52.8226480
  80.1577680  35.8284800  60.1974280  80.4550010  36.7347630  60.1166300
  80.7063240  35.3403580  59.5833850  77.9116000  40.4071040  56.0665930
  77.6856920  40.1908210  56.9712550  77.1308530  40.8399500  55.7211900
  85.1413760  40.4134410  54.6656580  84.5422650  41.1370210  54.4820200
  85.6893370  40.3511190  53.8833030  80.3515210  41.3056620  66.7326200
  80.2558810  40.3651350  66.5826600  81.1947190  41.5271690  66.3374270
  83.7478630  39.0497950  56.6959860  84.1408200  39.3670150  55.8828550
  84.1095480  38.1709830  56.8104380  75.4825750  37.7170290  64.8859980
  75.0889140  38.5645500  65.0932760  74.7944150  37.0796660  65.0768620
  82.0570800  37.8005260  67.9556720  81.3669120  37.6077460  68.5902810
  82.8003100  38.0839900  68.4881020  72.7842800  35.6398750  58.9190060
  72.4955850  36.2101610  59.6315040  73.5288560  35.1603200  59.2821290
  84.3333770  41.6403700  60.7910640  83.6014890  42.1490510  61.1400740
  83.9358110  40.8233680  60.4899420  80.7711160  38.3157900  59.1963130
  80.7747220  37.8747850  58.3467670  81.6662280  38.6375230  59.3034950
  76.6213540  38.1984390  58.1557340  76.2813590  38.6759620  58.9124390
  75.8590860  37.7449510  57.7958440  80.8331310  39.3169980  52.1869890
  80.9544130  39.2756460  53.1355710  80.4479820  40.1794130  52.0316620
  84.7959680  37.0937380  60.2033580  84.8132420  37.5446030  61.0475430
  84.5475260  36.1943020  60.4167020  79.8452810  41.6271120  51.5853190
  79.2769710  41.1789370  50.9589100  80.5541810  41.9863900  51.0518340
  74.9221990  45.5283140  65.4619920  74.5376780  44.8876810  66.0602880
  75.2334180  46.2319260  66.0314650  81.0719130  42.3759680  60.9428540
  81.4389260  41.9018250  61.6889880  80.8824190  43.2501250  61.2836880
  73.9359620  37.1203370  57.0722010  73.6506540  36.7559040  57.9100630
  73.8738480  36.3883830  56.4585150  78.8618500  41.4168320  63.2612750
  78.5575570  42.2960300  63.4863110  79.8164960  41.4768110  63.2970190
  77.3900290  45.6229310  53.8579600  76.6162550  45.0826930  53.6978320
  78.1194920  45.1035920  53.5197360  83.6098210  36.0132630  53.7935380
  82.7962820  35.5145800  53.7180690  83.4160160  36.8530880  53.3771730
  83.5307070  44.6903730  65.5374990  83.4644380  43.7699400  65.2832580
  82.9012210  44.7879170  66.2519630  86.3246600  40.3852280  52.0897540
  87.2126220  40.6969510  51.9148880  86.2951690  39.5124530  51.6978120
  77.4337690  45.2909690  57.4958410  77.9516360  44.4877950  57.4415300
  76.9821710  45.2288830  58.3375240  82.3207190  46.5575970  52.7685710
  82.6622890  47.3018200  52.2729030  81.4919900  46.8707090  53.1310540
  74.9182230  42.2571060  64.4084110  74.5597170  42.9224910  64.9957450
  74.6236790  41.4254610  64.7796730  78.1195350  42.7155300  67.2923660
  77.8195490  42.8612480  66.3951480  78.8906590  42.1560590  67.1997050
  83.4623800  47.5124300  65.2878790  83.4768340  46.5805260  65.0697700
  82.7548900  47.5984060  65.9268560  85.2034600  45.8791810  58.1331220
  85.5558420  45.2819940  57.4732590  84.3196930  45.5536040  58.3039470
  81.2897880  46.6389500  55.5401630  81.9769010  47.1858710  55.9209220
  80.5030300  47.1830230  55.5751240  80.5925090  43.6435530  55.1526990
  81.0487870  44.4540780  55.3787180  80.2413300  43.3258670  55.9845480
  82.8957700  49.1541870  62.3819290  83.5399920  49.3601250  63.0592710
  83.2587140  48.3930270  61.9290140  76.4936870  33.9873180  55.6249510
  76.3651500  33.9791080  56.5734430  75.6698890  34.3256270  55.2740520
  84.1689780  47.1574220  61.0996740  84.8112010  46.4567380  61.2128910
  84.6939130  47.9372660  60.9193630  85.9427400  47.9569120  64.3032800
  86.2783640  48.5435810  64.9810720  85.0227740  47.8261830  64.5330590
  73.7961530  51.4689700  51.5980340  74.1559170  52.0679040  50.9437610
  73.6553870  52.0149590  52.3715370  73.4930800  35.7464300  65.0856210
  72.7789320  35.9461220  65.6908820  73.9125840  34.9703870  65.4571010
  73.7803390  49.7344560  66.0722740  73.8894510  48.7939300  65.9318130
  73.1283950  49.9999310  65.4236470  81.7715980  48.0060450  67.4720860
  81.4512850  47.2869690  68.0166550  81.0974340  48.6815520  67.5456920
  79.8130150  48.8520900  52.4154010  79.8040250  49.5850590  51.7998520
  78.8928510  48.6052480  52.5080970  84.9869580  38.2386610  62.8357660
  85.3550400  37.4181820  63.1637230  84.1267780  38.2988500  63.2513310
  82.7989750  48.9149140  51.0779200  82.9001730  48.7113130  50.1481180
  81.8991490  48.6607420  51.2826980  80.3215640  39.4729500  55.0603100
  79.6131790  39.9415840  55.5016710  80.6060120  38.8151510  55.6948290
  81.9471570  40.8926200  63.0595630  82.4456820  41.3672020  63.7247480
  82.0894520  39.9689720  63.2665660  84.3531070  36.1980160  56.4998890
  84.2298850  36.2166290  55.5508400  85.3015630  36.2459100  56.6197290
  81.4407860  51.4335460  55.7726870  81.6949360  51.3956850  54.8506240
  80.4920340  51.3068790  55.7655120  78.5250660  37.7814580  52.4353810
  79.3741190  38.2184730  52.3694000  78.1581930  38.0934840  53.2625870
  77.4242080  44.0346940  50.9089340  78.1905350  43.9228300  51.4714770
  77.5016770  43.3384910  50.2566110  76.1188840  41.4672010  51.5922230
  76.1992430  40.5199520  51.7039630  77.0108590  41.7978890  51.6982890
  76.9203550  51.6167400  58.6956770  77.6566030  51.0682860  58.9665340
  77.3044470  52.4823410  58.5562760  73.8049030  47.6840970  54.5698280
  72.8788810  47.9262110  54.5603690  74.2705460  48.5115230  54.4483030
  75.9261830  50.8013470  67.8842350  76.7274560  51.1225520  68.2977750
  75.4113650  50.4409050  68.6062260  80.0305860  50.7897710  50.5182340
  80.8234470  51.0786540  50.0664130  79.5110210  50.3589880  49.8394820
  84.7626460  46.9093340  67.8317760  84.1564620  46.9324940  67.0913510
  84.4580570  46.1776380  68.3685010  86.1926830  50.6373630  66.4427170
  87.1448580  50.5531650  66.3927410  86.0455050  51.3015340  67.1160960
  73.6459640  43.2886930  66.8278400  74.1498660  42.7094210  67.3994630
  72.9067060  43.5727160  67.3654770  80.5483260  46.0101120  50.3824690
  80.4433900  45.3953470  51.1086070  80.3807480  45.4867010  49.5987700
  80.6997580  44.6957920  66.3613920  79.9343250  45.2642920  66.2768590
  80.8813540  44.4034130  65.4682150  83.7885990  45.0721150  50.9866680
  83.2396090  45.5190450  51.6309420  84.4105250  44.5670400  51.5104350
  75.6782720  41.4316520  67.7228470  75.7188060  41.1330390  68.6313700
  76.5328220  41.8324130  67.5635990  79.4561110  44.0312070  52.8831980
  79.8777530  43.8651940  53.7263370  79.5811950  43.2212300  52.3887120
  77.6188530  40.0108620  65.6902960  77.0884990  39.5199570  65.0626300
  78.2876600  40.4392820  65.1560890  81.9688750  43.0549680  50.1309080
  82.4894410  42.3398700  49.7650230  82.6157150  43.6935550  50.4309590
  86.5166590  44.4778080  65.4544150  86.9307610  44.6323160  66.3034570
  85.5817590  44.6033300  65.6169930  78.1060830  36.9770990  65.7700250
  78.0117700  36.3591740  65.0451120  77.5258220  37.7037280  65.5430160
  80.8722270  35.5344230  62.8027640  80.4239570  35.5568490  61.9573190
  80.2387470  35.1363250  63.3997940  81.2781820  44.4298560  63.4240080
  81.6969930  45.2731290  63.2516320  80.3590450  44.5670600  63.1946860
  83.6145720  42.1614740  64.8077920  83.7341930  41.5655880  65.5472760
  84.4739720  42.1984430  64.3879220  85.9533620  42.7151930  63.3840430
  85.4268840  43.2394550  62.7805570  86.2964960  43.3479320  64.0150160
  78.3520010  40.1045300  49.8290140  78.1509070  39.2412660  50.1903480
  78.1812060  40.0178660  48.8911740  79.1289240  50.7351570  64.5397810
  78.5910330  51.4597630  64.2206510  79.3823200  50.2581910  63.7495150
  80.3814490  38.7036090  66.0653740  80.9714180  38.3951940  66.7531560
  79.5634730  38.2315840  66.2213640  85.2007920  38.3201900  66.2986760
  84.5123440  37.6583440  66.2336750  85.9213940  37.8740170  66.7435220
  85.8308320  34.9153530  52.3577020  86.1110610  34.0721430  52.7136440
  85.0574050  35.1476640  52.8715770  77.1502810  37.2045920  49.8168020
  77.4528710  37.2113350  48.9087170  77.8897400  36.8543780  50.3135680
  81.9851450  51.9702780  64.7984460  81.9110150  52.8737920  65.1056830
  81.0830290  51.6514680  64.7706530  80.3687740  36.1480540  50.8024220
  80.0209740  35.4704530  50.2226670  80.5700510  35.6870050  51.6167610
  82.5336780  51.1361290  52.4210820  83.4287570  51.4746260  52.4429580
  82.5654410  50.4140700  51.7935100  73.3878740  49.2977370  58.1018080
  73.7181750  48.4298430  57.8696720  73.8169740  49.5035890  58.9323040
  77.9840660  47.6286380  55.7620050  77.6836200  47.5051350  56.6623960
  77.8778150  46.7694970  55.3535780  73.8768950  50.1647960  60.8399710
  73.4399940  50.3448760  61.6723860  74.4446630  50.9222580  60.6981430
  73.7093380  42.6768190  57.1988590  73.0542220  42.4079830  56.5548290
  74.5471330  42.5672670  56.7490570  86.6583820  37.4709480  51.4207080
  87.0768700  37.2840460  50.5803740  86.3519880  36.6188530  51.7310010
  74.7469310  43.0620760  61.7391930  75.1142350  42.9748160  62.6187950
  74.1780130  42.2987310  61.6398790  74.2985310  39.9729850  65.6450350
  73.4041360  39.9396610  65.9844060  74.8382860  40.1716640  66.4101600
  75.1132830  34.9971990  50.0910950  75.8360960  35.5380930  50.4092170
  75.3857350  34.7235410  49.2152490  74.8025020  34.2478180  59.9933570
  75.4501210  33.6975560  59.5528730  75.2226860  34.5021330  60.8149380
  74.5557020  34.4033850  62.7358890  74.2071840  34.8597670  63.5017070
  74.2244720  33.5090980  62.8181320  76.1621390  47.5753450  66.9012080
  76.1191020  47.2046360  67.7826540  76.2932400  48.5131020  67.0413900
  79.8627420  49.1313040  62.5021800  79.6218780  49.3987600  61.6152320
  80.8030060  49.3018770  62.5572660  82.0681840  35.5945730  66.2578310
  82.0070730  36.1867560  67.0073720  83.0082220  35.4871690  66.1128570
  84.7056400  35.2515790  65.8970600  85.3196810  35.5695080  65.2351680
  85.2505960  34.7664380  66.5166460  75.2277660  33.9310050  66.0109660
  75.7760650  33.7498100  65.2475770  75.2932970  33.1404160  66.5465970
  76.0009420  50.5215700  64.0209860  75.4069740  50.3900400  64.7599900
  75.9933260  49.6853840  63.5551960  85.4464440  33.8147930  62.2239890
  84.5724280  34.1483040  62.0212820  85.3375190  33.3421110  63.0491760
  86.3536420  36.0218800  63.6081610  86.0249780  35.2070560  63.2283340
  87.3018720  35.9788610  63.4847300  75.6321650  47.8874080  62.9717900
  74.9055710  47.2679370  62.9043850  75.6930800  48.2814690  62.1015980
  79.2366750  50.1019080  59.7567310  79.7531770  49.4906440  59.2315570
  79.8864130  50.6047860  60.2478320  81.9762250  50.9927570  60.5836290
  82.2640060  50.7381870  59.7069300  82.4885470  50.4404930  61.1741860
  83.1939260  34.7317770  61.1632800  82.4111050  35.2063270  61.4429560
  82.9002190  33.8272600  61.0545980  73.9151650  51.2048470  56.1814660
  73.7473690  50.5719150  56.8796550  73.0486160  51.4107870  55.8308850
  74.5379670  35.0365250  53.6846520  75.2959030  35.1494130  53.1110550
  74.0756840  35.8734450  53.6389950  81.0793480  37.1504520  56.6748830
  80.2667990  36.7761410  56.3344710  81.5835120  36.3949600  56.9770020
  85.5818460  33.8146970  57.9131900  86.1847830  34.3867180  58.3880420
  84.8411450  34.3786410  57.6905800  75.5214350  49.8981700  53.6264800
  74.9961970  50.2789730  52.9226760  75.4458930  50.5232470  54.3474510
  76.9104820  35.5629300  52.2248490  77.4397580  34.7759100  52.0956440
  77.5433140  36.2420490  52.4584020  79.1042660  35.3004440  55.2793880
  78.4745400  34.5991750  55.4464010  78.5647800  36.0608570  55.0627040
  82.0434610  51.9143670  67.9504490  82.9701920  51.6787940  67.9940450
  82.0285040  52.7415670  67.4690520  79.2298220  34.5788420  67.7146370
  78.9482490  35.0822020  66.9507190  79.6117920  33.7810170  67.3488500
  78.1207320  51.8464080  52.5014050  78.8526140  51.5623360  51.9537940
  78.3800990  51.6077360  53.3913430  77.2822110  47.9628810  52.5060380
  76.6530990  48.4313910  53.0546210  77.3969940  47.1178030  52.9406570
  85.8313680  33.9942000  68.2926840  85.7179130  34.3136610  69.1878360
  86.6483420  34.3954510  67.9964120  84.7371830  42.0134470  38.6561580
  84.6565880  41.0989080  38.3853290  84.3236250  42.5101540  37.9501290
  82.8689870  43.7913490  40.5370850  82.0931970  43.3113930  40.8269420
  83.5202800  43.1119140  40.3627010  76.8855700  44.1033300  41.4146610
  76.0540580  43.8482010  41.8143120  77.4936680  44.1744070  42.1504530
  76.8656960  48.1373390  41.6104630  77.1685000  47.2471130  41.4314850
  77.6100550  48.6943610  41.3826880  75.2947650  39.0635190  35.1989000
  74.4064350  39.4051160  35.0968880  75.5788840  38.8635510  34.3069830
  73.2580660  41.6640840  41.0828700  73.8296770  40.8963040  41.0832340
  73.2582200  41.9629600  40.1735310  83.1160610  50.4831690  38.9373970
  82.4972050  50.9389190  38.3668410  83.9712390  50.6383150  38.5363670
  82.3098860  46.4670680  40.5441010  82.2407140  45.5260620  40.3830140
  83.0718720  46.5572090  41.1163580  74.5005530  37.0725200  42.8697630
  74.3208370  36.1750950  43.1500390  74.0985610  37.6197070  43.5444580
  83.3404030  39.2741060  40.7709940  83.7168850  38.4012940  40.6583610
  83.2423540  39.6099760  39.8800380  77.4709040  37.6466690  36.2327380
  77.5775790  38.5470420  36.5396140  76.5601400  37.5984660  35.9422030
  75.1192200  39.5685700  41.4779970  75.8002310  39.8324070  42.0967370
  74.8040250  38.7286570  41.8117980  79.3116770  40.6153060  40.5652560
  79.8194990  41.1134030  41.2057580  79.8430010  39.8388260  40.3891920
  77.5952870  35.2551620  44.8315980  77.5971310  35.7724010  44.0261880
  76.7657180  34.7781800  44.8085910  83.9823960  45.3670930  36.3305880
  83.3641230  45.8320380  35.7668600  84.4947210  46.0598410  36.7475390
  78.8455720  44.8946800  43.0089480  78.5125100  45.5215720  43.6510550
  79.0222400  45.4208680  42.2291150  77.2768200  36.9661580  42.8386430
  77.6185010  37.8103630  42.5440300  76.3384010  37.1145320  42.9551770
  78.0574820  46.8627600  44.8238660  78.6748820  47.5378680  44.5423110
  77.1967940  47.2715580  44.7326160  73.3507160  46.0527460  33.7045510
  72.9735140  46.5414560  32.9730410  73.6080230  46.7252740  34.3352040
  80.9596090  34.4543850  39.1631020  81.2671070  33.8990740  38.4466520
  80.0296790  34.5888310  38.9804010  86.5111150  50.1711140  41.4538480
  86.5238310  49.7673430  40.5860740  85.9586370  50.9458430  41.3499910
  85.9096590  45.0740980  42.7821090  86.3265380  44.8601090  41.9474550
  86.6336410  45.3313770  43.3529710  83.3476850  42.5192680  35.8991140
  82.4206130  42.4530060  36.1279610  83.5001670  43.4572810  35.7846380
  83.3345930  38.7909680  32.8958300  82.3949600  38.9523640  32.9810760
  83.6529190  39.5095360  32.3494290  87.3774140  44.0812980  36.4026390
  86.7586560  43.7432530  35.7552690  87.3598590  43.4372740  37.1105580
  86.8200700  40.2597520  43.8192200  86.4071880  41.0851230  44.0732190
  86.0876650  39.6742560  43.6268560  78.9533490  43.0457420  38.6810870
  78.5490490  42.3334670  38.1856770  79.0396610  42.7010660  39.5698910
  79.4215190  46.7324980  40.8450080  79.1243480  46.1270450  40.1657860
  80.3715010  46.7702290  40.7339440  77.6662110  39.8200630  42.4609910
  78.2176700  39.9295970  41.6863160  78.1805620  40.1938230  43.1765140
  78.5133620  46.4706670  47.4957880  77.6162150  46.6946640  47.7431280
  78.5386490  46.5941610  46.5469280  85.5538840  43.3199790  33.4099140
  85.9932120  42.4822220  33.2636960  86.2667260  43.9529190  33.4963280
  77.3404840  43.3419990  46.0715250  77.2012610  44.2142790  46.4402650
  76.4586200  42.9992800  45.9263190  83.6634220  48.2595860  37.3780380
  84.1030130  49.0020190  36.9635770  83.6021110  48.5022430  38.3019340
  79.1385190  49.2841690  48.2800400  79.1100620  49.6884640  47.4128830
  78.9750160  48.3552050  48.1172000  75.6538120  41.9402400  36.1817520
  75.5335720  42.6664490  35.5698790  75.3439010  41.1705310  35.7045430
  73.2923490  45.1117540  41.9886160  73.3703910  45.2466310  41.0441880
  73.9065170  44.4033430  42.1814280  74.5371120  46.8117730  38.3992340
  74.1299200  46.9532320  37.5445940  75.4284130  46.5277890  38.1963550
  84.3550000  50.9609640  45.3059390  84.8694670  50.8717650  46.1081820
  83.5119080  51.3069340  45.5987300  86.3304400  51.2464980  34.7343390
  86.1705540  50.9567920  35.6325220  86.1651110  50.4705110  34.1988620
  78.8092780  51.0263510  36.5115010  78.6335260  50.1099050  36.2982810
  77.9548520  51.3850800  36.7512810  86.0330530  48.7552540  33.2941390
  85.3395690  48.7529830  32.6343670  86.7753390  48.3311860  32.8635560
  85.5980460  50.3815250  37.3689880  86.0537410  49.6004630  37.6828500
  85.9372980  51.0922070  37.9131060  73.3483010  46.1531710  44.5280620
  73.5114050  45.6837070  43.7099990  73.8135460  45.6455270  45.1929460
  78.1201780  35.2837470  39.5641190  77.6769930  36.0647010  39.2325710
  78.6786770  35.6067360  40.2712130  82.4071590  38.1505990  45.1676510
  81.9450960  38.3589010  45.9796450  82.0049700  37.3365340  44.8647180
  87.4076100  39.3714940  46.2973170  86.5569690  39.0720690  46.6182240
  87.2477890  39.6156950  45.3856990  84.5025810  40.8716690  48.3971960
  84.8279220  40.0380440  48.0574190  85.2906140  41.3945210  48.5450290
  81.2360600  34.9048170  34.4447020  80.6114780  34.9008040  35.1700330
  81.1490720  34.0379130  34.0482990  80.1577680  35.8284800  41.4230790
  80.4550010  36.7347630  41.3422810  80.7063240  35.3403580  40.8090360
  77.9116000  40.4071040  37.2922440  77.6856920  40.1908210  38.1969060
  77.1308530  40.8399500  36.9468410  85.1413760  40.4134410  35.8913090
  84.5422650  41.1370210  35.7076710  85.6893370  40.3511190  35.1089540
  80.3515210  41.3056620  47.9582710  80.2558810  40.3651350  47.8083110
  81.1947190  41.5271690  47.5630780  83.7478630  39.0497950  37.9216370
  84.1408200  39.3670150  37.1085060  84.1095480  38.1709830  38.0360890
  75.4825750  37.7170290  46.1116490  75.0889140  38.5645500  46.3189270
  74.7944150  37.0796660  46.3025130  82.0570800  37.8005260  49.1813230
  81.3669120  37.6077460  49.8159320  82.8003100  38.0839900  49.7137530
  72.7842800  35.6398750  40.1446570  72.4955850  36.2101610  40.8571550
  73.5288560  35.1603200  40.5077800  72.9713030  39.5818870  31.3549290
  72.8887700  40.5249630  31.4964280  72.6196090  39.4393780  30.4761640
  84.3333770  41.6403700  42.0167150  83.6014890  42.1490510  42.3657250
  83.9358110  40.8233680  41.7155930  80.7711160  38.3157900  40.4219640
  80.7747220  37.8747850  39.5724180  81.6662280  38.6375230  40.5291460
  76.6213540  38.1984390  39.3813850  76.2813590  38.6759620  40.1380900
  75.8590860  37.7449510  39.0214950  80.8331310  39.3169980  33.4126400
  80.9544130  39.2756460  34.3612220  80.4479820  40.1794130  33.2573130
  84.7959680  37.0937380  41.4290090  84.8132420  37.5446030  42.2731940
  84.5475260  36.1943020  41.6423530  79.8452810  41.6271120  32.8109700
  79.2769710  41.1789370  32.1845610  80.5541810  41.9863900  32.2774850
  74.9221990  45.5283140  46.6876430  74.5376780  44.8876810  47.2859390
  75.2334180  46.2319260  47.2571160  81.0719130  42.3759680  42.1685050
  81.4389260  41.9018250  42.9146390  80.8824190  43.2501250  42.5093390
  73.9359620  37.1203370  38.2978520  73.6506540  36.7559040  39.1357140
  73.8738480  36.3883830  37.6841660  78.8618500  41.4168320  44.4869260
  78.5575570  42.2960300  44.7119620  79.8164960  41.4768110  44.5226700
  77.3900290  45.6229310  35.0836110  76.6162550  45.0826930  34.9234830
  78.1194920  45.1035920  34.7453870  83.6098210  36.0132630  35.0191890
  82.7962820  35.5145800  34.9437200  83.4160160  36.8530880  34.6028240
  83.5307070  44.6903730  46.7631500  83.4644380  43.7699400  46.5089090
  82.9012210  44.7879170  47.4776140  86.3246600  40.3852280  33.3154050
  87.2126220  40.6969510  33.1405390  86.2951690  39.5124530  32.9234630
  77.4337690  45.2909690  38.7214920  77.9516360  44.4877950  38.6671810
  76.9821710  45.2288830  39.5631750  82.3207190  46.5575970  33.9942220
  82.6622890  47.3018200  33.4985540  81.4919900  46.8707090  34.3567050
  74.9182230  42.2571060  45.6340620  74.5597170  42.9224910  46.2213960
  74.6236790  41.4254610  46.0053240  78.1195350  42.7155300  48.5180170
  77.8195490  42.8612480  47.6207990  78.8906590  42.1560590  48.4253560
  83.4623800  47.5124300  46.5135300  83.4768340  46.5805260  46.2954210
  82.7548900  47.5984060  47.1525070  85.2034600  45.8791810  39.3587730
  85.5558420  45.2819940  38.6989100  84.3196930  45.5536040  39.5295980
  81.2897880  46.6389500  36.7658140  81.9769010  47.1858710  37.1465730
  80.5030300  47.1830230  36.8007750  73.4290280  42.2562320  32.2575220
  74.2985130  42.5387120  32.5411140  72.9380600  43.0698190  32.1424030
  80.5925090  43.6435530  36.3783500  81.0487870  44.4540780  36.6043690
  80.2413300  43.3258670  37.2101990  82.8957700  49.1541870  43.6075800
  83.5399920  49.3601250  44.2849220  83.2587140  48.3930270  43.1546650
  76.4936870  33.9873180  36.8506020  76.3651500  33.9791080  37.7990940
  75.6698890  34.3256270  36.4997030  84.1689780  47.1574220  42.3253250
  84.8112010  46.4567380  42.4385420  84.6939130  47.9372660  42.1450140
  85.9427400  47.9569120  45.5289310  86.2783640  48.5435810  46.2067230
  85.0227740  47.8261830  45.7587100  73.7961530  51.4689700  32.8236850
  74.1559170  52.0679040  32.1694120  73.6553870  52.0149590  33.5971880
  73.4930800  35.7464300  46.3112720  72.7789320  35.9461220  46.9165330
  73.9125840  34.9703870  46.6827520  73.7803390  49.7344560  47.2979250
  73.8894510  48.7939300  47.1574640  73.1283950  49.9999310  46.6492980
  81.7715980  48.0060450  48.6977370  81.4512850  47.2869690  49.2423060
  81.0974340  48.6815520  48.7713430  79.8130150  48.8520900  33.6410520
  79.8040250  49.5850590  33.0255030  78.8928510  48.6052480  33.7337480
  75.4136790  44.0735790  34.3857280  74.8064740  44.8134690  34.3952580
  75.8886140  44.1635150  33.5595480  84.9869580  38.2386610  44.0614170
  85.3550400  37.4181820  44.3893740  84.1267780  38.2988500  44.4769820
  82.7989750  48.9149140  32.3035710  82.9001730  48.7113130  31.3737690
  81.8991490  48.6607420  32.5083490  80.3215640  39.4729500  36.2859610
  79.6131790  39.9415840  36.7273220  80.6060120  38.8151510  36.9204800
  81.9471570  40.8926200  44.2852140  82.4456820  41.3672020  44.9503990
  82.0894520  39.9689720  44.4922170  84.3531070  36.1980160  37.7255400
  84.2298850  36.2166290  36.7764910  85.3015630  36.2459100  37.8453800
  81.4407860  51.4335460  36.9983380  81.6949360  51.3956850  36.0762750
  80.4920340  51.3068790  36.9911630  78.5250660  37.7814580  33.6610320
  79.3741190  38.2184730  33.5950510  78.1581930  38.0934840  34.4882380
  77.4242080  44.0346940  32.1345850  78.1905350  43.9228300  32.6971280
  77.5016770  43.3384910  31.4822620  76.1188840  41.4672010  32.8178740
  76.1992430  40.5199520  32.9296140  77.0108590  41.7978890  32.9239400
  76.9203550  51.6167400  39.9213280  77.6566030  51.0682860  40.1921850
  77.3044470  52.4823410  39.7819270  73.8049030  47.6840970  35.7954790
  72.8788810  47.9262110  35.7860200  74.2705460  48.5115230  35.6739540
  75.9261830  50.8013470  49.1098860  76.7274560  51.1225520  49.5234260
  75.4113650  50.4409050  49.8318770  80.0305860  50.7897710  31.7438850
  80.8234470  51.0786540  31.2920640  79.5110210  50.3589880  31.0651330
  84.7626460  46.9093340  49.0574270  84.1564620  46.9324940  48.3170020
  84.4580570  46.1776380  49.5941520  86.1926830  50.6373630  47.6683680
  87.1448580  50.5531650  47.6183920  86.0455050  51.3015340  48.3417470
  80.5483260  46.0101120  31.6081200  80.4433900  45.3953470  32.3342580
  80.3807480  45.4867010  30.8244210  80.6997580  44.6957920  47.5870430
  79.9343250  45.2642920  47.5025100  80.8813540  44.4034130  46.6938660
  83.7885990  45.0721150  32.2123190  83.2396090  45.5190450  32.8565930
  84.4105250  44.5670400  32.7360860  75.6782720  41.4316520  48.9484980
  75.7188060  41.1330390  49.8570210  76.5328220  41.8324130  48.7892500
  79.4561110  44.0312070  34.1088490  79.8777530  43.8651940  34.9519880
  79.5811950  43.2212300  33.6143630  77.6188530  40.0108620  46.9159470
  77.0884990  39.5199570  46.2882810  78.2876600  40.4392820  46.3817400
  81.9688750  43.0549680  31.3565590  82.4894410  42.3398700  30.9906740
  82.6157150  43.6935550  31.6566100  86.5166590  44.4778080  46.6800660
  86.9307610  44.6323160  47.5291080  85.5817590  44.6033300  46.8426440
  78.1060830  36.9770990  46.9956760  78.0117700  36.3591740  46.2707630
  77.5258220  37.7037280  46.7686670  80.8722270  35.5344230  44.0284150
  80.4239570  35.5568490  43.1829700  80.2387470  35.1363250  44.6254450
  81.2781820  44.4298560  44.6496590  81.6969930  45.2731290  44.4772830
  80.3590450  44.5670600  44.4203370  83.6145720  42.1614740  46.0334430
  83.7341930  41.5655880  46.7729270  84.4739720  42.1984430  45.6135730
  85.9533620  42.7151930  44.6096940  85.4268840  43.2394550  44.0062080
  86.2964960  43.3479320  45.2406670  78.3520010  40.1045300  31.0546650
  78.1509070  39.2412660  31.4159990  78.1812060  40.0178660  30.1168250
  79.1289240  50.7351570  45.7654320  78.5910330  51.4597630  45.4463020
  79.3823200  50.2581910  44.9751660  80.3814490  38.7036090  47.2910250
  80.9714180  38.3951940  47.9788070  79.5634730  38.2315840  47.4470150
  85.2007920  38.3201900  47.5243270  84.5123440  37.6583440  47.4593260
  85.9213940  37.8740170  47.9691730  85.8308320  34.9153530  33.5833530
  86.1110610  34.0721430  33.9392950  85.0574050  35.1476640  34.0972280
  77.1502810  37.2045920  31.0424530  77.4528710  37.2113350  30.1343680
  77.8897400  36.8543780  31.5392190  81.9851450  51.9702780  46.0240970
  81.9110150  52.8737920  46.3313340  81.0830290  51.6514680  45.9963040
  80.3687740  36.1480540  32.0280730  80.0209740  35.4704530  31.4483180
  80.5700510  35.6870050  32.8424120  82.5336780  51.1361290  33.6467330
  83.4287570  51.4746260  33.6686090  82.5654410  50.4140700  33.0191610
  76.1732940  46.5088340  31.8754330  76.6107810  47.0518010  32.5311910
  76.6580670  45.6835290  31.8850670  73.3878740  49.2977370  39.3274590
  73.7181750  48.4298430  39.0953230  73.8169740  49.5035890  40.1579550
  77.9840660  47.6286380  36.9876560  77.6836200  47.5051350  37.8880470
  77.8778150  46.7694970  36.5792290  73.8768950  50.1647960  42.0656220
  73.4399940  50.3448760  42.8980370  74.4446630  50.9222580  41.9237940
  73.7093380  42.6768190  38.4245100  73.0542220  42.4079830  37.7804800
  74.5471330  42.5672670  37.9747080  86.6583820  37.4709480  32.6463590
  87.0768700  37.2840460  31.8060250  86.3519880  36.6188530  32.9566520
  74.7469310  43.0620760  42.9648440  75.1142350  42.9748160  43.8444460
  74.1780130  42.2987310  42.8655300  72.9231460  39.8867120  34.3670430
  72.0195540  40.1497320  34.1922090  73.4072080  40.1578290  33.5870390
  75.4658670  38.9432660  32.2764810  76.1750370  38.5215880  31.7912090
  74.7498610  39.0107890  31.6448160  75.1132830  34.9971990  31.3167460
  75.8360960  35.5380930  31.6348680  75.3857350  34.7235410  30.4409000
  74.8025020  34.2478180  41.2190080  75.4501210  33.6975560  40.7785240
  75.2226860  34.5021330  42.0405890  74.5557020  34.4033850  43.9615400
  74.2071840  34.8597670  44.7273580  74.2244720  33.5090980  44.0437830
  76.1621390  47.5753450  48.1268590  76.1191020  47.2046360  49.0083050
  76.2932400  48.5131020  48.2670410  79.8627420  49.1313040  43.7278310
  79.6218780  49.3987600  42.8408830  80.8030060  49.3018770  43.7829170
  82.0681840  35.5945730  47.4834820  82.0070730  36.1867560  48.2330230
  83.0082220  35.4871690  47.3385080  84.7056400  35.2515790  47.1227110
  85.3196810  35.5695080  46.4608190  85.2505960  34.7664380  47.7422970
  75.2277660  33.9310050  47.2366170  75.7760650  33.7498100  46.4732280
  75.2932970  33.1404160  47.7722480  76.0009420  50.5215700  45.2466370
  75.4069740  50.3900400  45.9856410  75.9933260  49.6853840  44.7808470
  85.4464440  33.8147930  43.4496400  84.5724280  34.1483040  43.2469330
  85.3375190  33.3421110  44.2748270  86.3536420  36.0218800  44.8338120
  86.0249780  35.2070560  44.4539850  87.3018720  35.9788610  44.7103810
  75.6321650  47.8874080  44.1974410  74.9055710  47.2679370  44.1300360
  75.6930800  48.2814690  43.3272490  79.2366750  50.1019080  40.9823820
  79.7531770  49.4906440  40.4572080  79.8864130  50.6047860  41.4734830
  81.9762250  50.9927570  41.8092800  82.2640060  50.7381870  40.9325810
  82.4885470  50.4404930  42.3998370  83.1939260  34.7317770  42.3889310
  82.4111050  35.2063270  42.6686070  82.9002190  33.8272600  42.2802490
  73.9151650  51.2048470  37.4071170  73.7473690  50.5719150  38.1053060
  73.0486160  51.4107870  37.0565360  74.5379670  35.0365250  34.9103030
  75.2959030  35.1494130  34.3367060  74.0756840  35.8734450  34.8646460
  81.0793480  37.1504520  37.9005340  80.2667990  36.7761410  37.5601220
  81.5835120  36.3949600  38.2026530  85.5818460  33.8146970  39.1388410
  86.1847830  34.3867180  39.6136930  84.8411450  34.3786410  38.9162310
  75.5214350  49.8981700  34.8521310  74.9961970  50.2789730  34.1483270
  75.4458930  50.5232470  35.5731020  76.9104820  35.5629300  33.4505000
  77.4397580  34.7759100  33.3212950  77.5433140  36.2420490  33.6840530
  79.1042660  35.3004440  36.5050390  78.4745400  34.5991750  36.6720520
  78.5647800  36.0608570  36.2883550  82.0434610  51.9143670  49.1761000
  82.9701920  51.6787940  49.2196960  82.0285040  52.7415670  48.6947030
  79.2298220  34.5788420  48.9402880  78.9482490  35.0822020  48.1763700
  79.6117920  33.7810170  48.5745010  78.1207320  51.8464080  33.7270560
  78.8526140  51.5623360  33.1794450  78.3800990  51.6077360  34.6169940
  77.2822110  47.9628810  33.7316890  76.6530990  48.4313910  34.2802720
  77.3969940  47.1178030  34.1663080  85.8313680  33.9942000  49.5183350
  85.7179130  34.3136610  50.4134870  86.6483420  34.3954510  49.2220630
  84.7371830  42.0134470  19.8818090  84.6565880  41.0989080  19.6109800
  84.3236250  42.5101540  19.1757800  82.8689870  43.7913490  21.7627360
  82.0931970  43.3113930  22.0525930  83.5202800  43.1119140  21.5883520
  76.8855700  44.1033300  22.6403120  76.0540580  43.8482010  23.0399630
  77.4936680  44.1744070  23.3761040  76.8656960  48.1373390  22.8361140
  77.1685000  47.2471130  22.6571360  77.6100550  48.6943610  22.6083390
  75.2947650  39.0635190  16.4245510  74.4064350  39.4051160  16.3225390
  75.5788840  38.8635510  15.5326340  73.2580660  41.6640840  22.3085210
  73.8296770  40.8963040  22.3088850  73.2582200  41.9629600  21.3991820
  83.1160610  50.4831690  20.1630480  82.4972050  50.9389190  19.5924920
  83.9712390  50.6383150  19.7620180  82.3098860  46.4670680  21.7697520
  82.2407140  45.5260620  21.6086650  83.0718720  46.5572090  22.3420090
  74.5005530  37.0725200  24.0954140  74.3208370  36.1750950  24.3756900
  74.0985610  37.6197070  24.7701090  83.3404030  39.2741060  21.9966450
  83.7168850  38.4012940  21.8840120  83.2423540  39.6099760  21.1056890
  77.4709040  37.6466690  17.4583890  77.5775790  38.5470420  17.7652650
  76.5601400  37.5984660  17.1678540  75.1192200  39.5685700  22.7036480
  75.8002310  39.8324070  23.3223880  74.8040250  38.7286570  23.0374490
  79.3116770  40.6153060  21.7909070  79.8194990  41.1134030  22.4314090
  79.8430010  39.8388260  21.6148430  77.5952870  35.2551620  26.0572490
  77.5971310  35.7724010  25.2518390  76.7657180  34.7781800  26.0342420
  83.9823960  45.3670930  17.5562390  83.3641230  45.8320380  16.9925110
  84.4947210  46.0598410  17.9731900  78.8455720  44.8946800  24.2345990
  78.5125100  45.5215720  24.8767060  79.0222400  45.4208680  23.4547660
  77.2768200  36.9661580  24.0642940  77.6185010  37.8103630  23.7696810
  76.3384010  37.1145320  24.1808280  78.0574820  46.8627600  26.0495170
  78.6748820  47.5378680  25.7679620  77.1967940  47.2715580  25.9582670
  73.3507160  46.0527460  14.9302020  72.9735140  46.5414560  14.1986920
  73.6080230  46.7252740  15.5608550  80.9596090  34.4543850  20.3887530
  81.2671070  33.8990740  19.6723030  80.0296790  34.5888310  20.2060520
  86.5111150  50.1711140  22.6794990  86.5238310  49.7673430  21.8117250
  85.9586370  50.9458430  22.5756420  85.9096590  45.0740980  24.0077600
  86.3265380  44.8601090  23.1731060  86.6336410  45.3313770  24.5786220
  83.3476850  42.5192680  17.1247650  82.4206130  42.4530060  17.3536120
  83.5001670  43.4572810  17.0102890  83.3345930  38.7909680  14.1214810
  82.3949600  38.9523640  14.2067270  83.6529190  39.5095360  13.5750800
  87.3774140  44.0812980  17.6282900  86.7586560  43.7432530  16.9809200
  87.3598590  43.4372740  18.3362090  86.8200700  40.2597520  25.0448710
  86.4071880  41.0851230  25.2988700  86.0876650  39.6742560  24.8525070
  78.9533490  43.0457420  19.9067380  78.5490490  42.3334670  19.4113280
  79.0396610  42.7010660  20.7955420  79.4215190  46.7324980  22.0706590
  79.1243480  46.1270450  21.3914370  80.3715010  46.7702290  21.9595950
  77.6662110  39.8200630  23.6866420  78.2176700  39.9295970  22.9119670
  78.1805620  40.1938230  24.4021650  78.5133620  46.4706670  28.7214390
  77.6162150  46.6946640  28.9687790  78.5386490  46.5941610  27.7725790
  85.5538840  43.3199790  14.6355650  85.9932120  42.4822220  14.4893470
  86.2667260  43.9529190  14.7219790  77.3404840  43.3419990  27.2971760
  77.2012610  44.2142790  27.6659160  76.4586200  42.9992800  27.1519700
  83.6634220  48.2595860  18.6036890  84.1030130  49.0020190  18.1892280
  83.6021110  48.5022430  19.5275850  79.1385190  49.2841690  29.5056910
  79.1100620  49.6884640  28.6385340  78.9750160  48.3552050  29.3428510
  75.6538120  41.9402400  17.4074030  75.5335720  42.6664490  16.7955300
  75.3439010  41.1705310  16.9301940  73.2923490  45.1117540  23.2142670
  73.3703910  45.2466310  22.2698390  73.9065170  44.4033430  23.4070790
  74.5371120  46.8117730  19.6248850  74.1299200  46.9532320  18.7702450
  75.4284130  46.5277890  19.4220060  84.3550000  50.9609640  26.5315900
  84.8694670  50.8717650  27.3338330  83.5119080  51.3069340  26.8243810
  86.3304400  51.2464980  15.9599900  86.1705540  50.9567920  16.8581730
  86.1651110  50.4705110  15.4245130  78.8092780  51.0263510  17.7371520
  78.6335260  50.1099050  17.5239320  77.9548520  51.3850800  17.9769320
  86.0330530  48.7552540  14.5197900  85.3395690  48.7529830  13.8600180
  86.7753390  48.3311860  14.0892070  85.5980460  50.3815250  18.5946390
  86.0537410  49.6004630  18.9085010  85.9372980  51.0922070  19.1387570
  73.3483010  46.1531710  25.7537130  73.5114050  45.6837070  24.9356500
  73.8135460  45.6455270  26.4185970  78.1201780  35.2837470  20.7897700
  77.6769930  36.0647010  20.4582220  78.6786770  35.6067360  21.4968640
  82.4071590  38.1505990  26.3933020  81.9450960  38.3589010  27.2052960
  82.0049700  37.3365340  26.0903690  87.4076100  39.3714940  27.5229680
  86.5569690  39.0720690  27.8438750  87.2477890  39.6156950  26.6113500
  84.5025810  40.8716690  29.6228470  84.8279220  40.0380440  29.2830700
  85.2906140  41.3945210  29.7706800  81.2360600  34.9048170  15.6703530
  80.6114780  34.9008040  16.3956840  81.1490720  34.0379130  15.2739500
  80.1577680  35.8284800  22.6487300  80.4550010  36.7347630  22.5679320
  80.7063240  35.3403580  22.0346870  77.9116000  40.4071040  18.5178950
  77.6856920  40.1908210  19.4225570  77.1308530  40.8399500  18.1724920
  85.1413760  40.4134410  17.1169600  84.5422650  41.1370210  16.9333220
  85.6893370  40.3511190  16.3346050  80.3515210  41.3056620  29.1839220
  80.2558810  40.3651350  29.0339620  81.1947190  41.5271690  28.7887290
  83.7478630  39.0497950  19.1472880  84.1408200  39.3670150  18.3341570
  84.1095480  38.1709830  19.2617400  75.4825750  37.7170290  27.3373000
  75.0889140  38.5645500  27.5445780  74.7944150  37.0796660  27.5281640
  82.0570800  37.8005260  30.4069740  81.3669120  37.6077460  31.0415830
  82.8003100  38.0839900  30.9394040  72.7842800  35.6398750  21.3703080
  72.4955850  36.2101610  22.0828060  73.5288560  35.1603200  21.7334310
  72.9713030  39.5818870  12.5805800  72.8887700  40.5249630  12.7220790
  72.6196090  39.4393780  11.7018150  84.3333770  41.6403700  23.2423660
  83.6014890  42.1490510  23.5913760  83.9358110  40.8233680  22.9412440
  80.7711160  38.3157900  21.6476150  80.7747220  37.8747850  20.7980690
  81.6662280  38.6375230  21.7547970  76.6213540  38.1984390  20.6070360
  76.2813590  38.6759620  21.3637410  75.8590860  37.7449510  20.2471460
  80.8331310  39.3169980  14.6382910  80.9544130  39.2756460  15.5868730
  80.4479820  40.1794130  14.4829640  84.7959680  37.0937380  22.6546600
  84.8132420  37.5446030  23.4988450  84.5475260  36.1943020  22.8680040
  79.8452810  41.6271120  14.0366210  79.2769710  41.1789370  13.4102120
  80.5541810  41.9863900  13.5031360  74.9221990  45.5283140  27.9132940
  74.5376780  44.8876810  28.5115900  75.2334180  46.2319260  28.4827670
  81.0719130  42.3759680  23.3941560  81.4389260  41.9018250  24.1402900
  80.8824190  43.2501250  23.7349900  73.9359620  37.1203370  19.5235030
  73.6506540  36.7559040  20.3613650  73.8738480  36.3883830  18.9098170
  78.8618500  41.4168320  25.7125770  78.5575570  42.2960300  25.9376130
  79.8164960  41.4768110  25.7483210  77.3900290  45.6229310  16.3092620
  76.6162550  45.0826930  16.1491340  78.1194920  45.1035920  15.9710380
  83.6098210  36.0132630  16.2448400  82.7962820  35.5145800  16.1693710
  83.4160160  36.8530880  15.8284750  83.5307070  44.6903730  27.9888010
  83.4644380  43.7699400  27.7345600  82.9012210  44.7879170  28.7032650
  86.3246600  40.3852280  14.5410560  87.2126220  40.6969510  14.3661900
  86.2951690  39.5124530  14.1491140  77.4337690  45.2909690  19.9471430
  77.9516360  44.4877950  19.8928320  76.9821710  45.2288830  20.7888260
  82.3207190  46.5575970  15.2198730  82.6622890  47.3018200  14.7242050
  81.4919900  46.8707090  15.5823560  74.9182230  42.2571060  26.8597130
  74.5597170  42.9224910  27.4470470  74.6236790  41.4254610  27.2309750
  78.1195350  42.7155300  29.7436680  77.8195490  42.8612480  28.8464500
  78.8906590  42.1560590  29.6510070  83.4623800  47.5124300  27.7391810
  83.4768340  46.5805260  27.5210720  82.7548900  47.5984060  28.3781580
  85.2034600  45.8791810  20.5844240  85.5558420  45.2819940  19.9245610
  84.3196930  45.5536040  20.7552490  81.2897880  46.6389500  17.9914650
  81.9769010  47.1858710  18.3722240  80.5030300  47.1830230  18.0264260
  73.4290280  42.2562320  13.4831730  74.2985130  42.5387120  13.7667650
  72.9380600  43.0698190  13.3680540  80.5925090  43.6435530  17.6040010
  81.0487870  44.4540780  17.8300200  80.2413300  43.3258670  18.4358500
  82.8957700  49.1541870  24.8332310  83.5399920  49.3601250  25.5105730
  83.2587140  48.3930270  24.3803160  76.4936870  33.9873180  18.0762530
  76.3651500  33.9791080  19.0247450  75.6698890  34.3256270  17.7253540
  84.1689780  47.1574220  23.5509760  84.8112010  46.4567380  23.6641930
  84.6939130  47.9372660  23.3706650  85.9427400  47.9569120  26.7545820
  86.2783640  48.5435810  27.4323740  85.0227740  47.8261830  26.9843610
  73.7961530  51.4689700  14.0493360  74.1559170  52.0679040  13.3950630
  73.6553870  52.0149590  14.8228390  73.4930800  35.7464300  27.5369230
  72.7789320  35.9461220  28.1421840  73.9125840  34.9703870  27.9084030
  73.7803390  49.7344560  28.5235760  73.8894510  48.7939300  28.3831150
  73.1283950  49.9999310  27.8749490  81.7715980  48.0060450  29.9233880
  81.4512850  47.2869690  30.4679570  81.0974340  48.6815520  29.9969940
  79.8130150  48.8520900  14.8667030  79.8040250  49.5850590  14.2511540
  78.8928510  48.6052480  14.9593990  75.4136790  44.0735790  15.6113790
  74.8064740  44.8134690  15.6209090  75.8886140  44.1635150  14.7851990
  84.9869580  38.2386610  25.2870680  85.3550400  37.4181820  25.6150250
  84.1267780  38.2988500  25.7026330  82.7989750  48.9149140  13.5292220
  82.9001730  48.7113130  12.5994200  81.8991490  48.6607420  13.7340000
  80.3215640  39.4729500  17.5116120  79.6131790  39.9415840  17.9529730
  80.6060120  38.8151510  18.1461310  81.9471570  40.8926200  25.5108650
  82.4456820  41.3672020  26.1760500  82.0894520  39.9689720  25.7178680
  84.3531070  36.1980160  18.9511910  84.2298850  36.2166290  18.0021420
  85.3015630  36.2459100  19.0710310  81.4407860  51.4335460  18.2239890
  81.6949360  51.3956850  17.3019260  80.4920340  51.3068790  18.2168140
  78.5250660  37.7814580  14.8866830  79.3741190  38.2184730  14.8207020
  78.1581930  38.0934840  15.7138890  77.4242080  44.0346940  13.3602360
  78.1905350  43.9228300  13.9227790  77.5016770  43.3384910  12.7079130
  76.1188840  41.4672010  14.0435250  76.1992430  40.5199520  14.1552650
  77.0108590  41.7978890  14.1495910  76.9203550  51.6167400  21.1469790
  77.6566030  51.0682860  21.4178360  77.3044470  52.4823410  21.0075780
  73.8049030  47.6840970  17.0211300  72.8788810  47.9262110  17.0116710
  74.2705460  48.5115230  16.8996050  75.9261830  50.8013470  30.3355370
  76.7274560  51.1225520  30.7490770  75.4113650  50.4409050  31.0575280
  80.0305860  50.7897710  12.9695360  80.8234470  51.0786540  12.5177150
  79.5110210  50.3589880  12.2907840  84.7626460  46.9093340  30.2830780
  84.1564620  46.9324940  29.5426530  84.4580570  46.1776380  30.8198030
  86.1926830  50.6373630  28.8940190  87.1448580  50.5531650  28.8440430
  86.0455050  51.3015340  29.5673980  73.6459640  43.2886930  29.2791420
  74.1498660  42.7094210  29.8507650  72.9067060  43.5727160  29.8167790
  80.5483260  46.0101120  12.8337710  80.4433900  45.3953470  13.5599090
  80.3807480  45.4867010  12.0500720  80.6997580  44.6957920  28.8126940
  79.9343250  45.2642920  28.7281610  80.8813540  44.4034130  27.9195170
  83.7885990  45.0721150  13.4379700  83.2396090  45.5190450  14.0822440
  84.4105250  44.5670400  13.9617370  75.6782720  41.4316520  30.1741490
  75.7188060  41.1330390  31.0826720  76.5328220  41.8324130  30.0149010
  79.4561110  44.0312070  15.3345000  79.8777530  43.8651940  16.1776390
  79.5811950  43.2212300  14.8400140  77.6188530  40.0108620  28.1415980
  77.0884990  39.5199570  27.5139320  78.2876600  40.4392820  27.6073910
  81.9688750  43.0549680  12.5822100  82.4894410  42.3398700  12.2163250
  82.6157150  43.6935550  12.8822610  86.5166590  44.4778080  27.9057170
  86.9307610  44.6323160  28.7547590  85.5817590  44.6033300  28.0682950
  78.1060830  36.9770990  28.2213270  78.0117700  36.3591740  27.4964140
  77.5258220  37.7037280  27.9943180  80.8722270  35.5344230  25.2540660
  80.4239570  35.5568490  24.4086210  80.2387470  35.1363250  25.8510960
  81.2781820  44.4298560  25.8753100  81.6969930  45.2731290  25.7029340
  80.3590450  44.5670600  25.6459880  83.6145720  42.1614740  27.2590940
  83.7341930  41.5655880  27.9985780  84.4739720  42.1984430  26.8392240
  85.9533620  42.7151930  25.8353450  85.4268840  43.2394550  25.2318590
  86.2964960  43.3479320  26.4663180  78.3520010  40.1045300  12.2803160
  78.1509070  39.2412660  12.6416500  78.1812060  40.0178660  11.3424760
  79.1289240  50.7351570  26.9910830  78.5910330  51.4597630  26.6719530
  79.3823200  50.2581910  26.2008170  80.3814490  38.7036090  28.5166760
  80.9714180  38.3951940  29.2044580  79.5634730  38.2315840  28.6726660
  85.2007920  38.3201900  28.7499780  84.5123440  37.6583440  28.6849770
  85.9213940  37.8740170  29.1948240  85.8308320  34.9153530  14.8090040
  86.1110610  34.0721430  15.1649460  85.0574050  35.1476640  15.3228790
  77.1502810  37.2045920  12.2681040  77.4528710  37.2113350  11.3600190
  77.8897400  36.8543780  12.7648700  81.9851450  51.9702780  27.2497480
  81.9110150  52.8737920  27.5569850  81.0830290  51.6514680  27.2219550
  80.3687740  36.1480540  13.2537240  80.0209740  35.4704530  12.6739690
  80.5700510  35.6870050  14.0680630  82.5336780  51.1361290  14.8723840
  83.4287570  51.4746260  14.8942600  82.5654410  50.4140700  14.2448120
  76.1732940  46.5088340  13.1010840  76.6107810  47.0518010  13.7568420
  76.6580670  45.6835290  13.1107180  73.3878740  49.2977370  20.5531100
  73.7181750  48.4298430  20.3209740  73.8169740  49.5035890  21.3836060
  77.9840660  47.6286380  18.2133070  77.6836200  47.5051350  19.1136980
  77.8778150  46.7694970  17.8048800  73.8768950  50.1647960  23.2912730
  73.4399940  50.3448760  24.1236880  74.4446630  50.9222580  23.1494450
  73.7093380  42.6768190  19.6501610  73.0542220  42.4079830  19.0061310
  74.5471330  42.5672670  19.2003590  86.6583820  37.4709480  13.8720100
  87.0768700  37.2840460  13.0316760  86.3519880  36.6188530  14.1823030
  74.7469310  43.0620760  24.1904950  75.1142350  42.9748160  25.0700970
  74.1780130  42.2987310  24.0911810  74.2985310  39.9729850  28.0963370
  73.4041360  39.9396610  28.4357080  74.8382860  40.1716640  28.8614620
  72.9231460  39.8867120  15.5926940  72.0195540  40.1497320  15.4178600
  73.4072080  40.1578290  14.8126900  75.4658670  38.9432660  13.5021320
  76.1750370  38.5215880  13.0168600  74.7498610  39.0107890  12.8704670
  75.1132830  34.9971990  12.5423970  75.8360960  35.5380930  12.8605190
  75.3857350  34.7235410  11.6665510  74.8025020  34.2478180  22.4446590
  75.4501210  33.6975560  22.0041750  75.2226860  34.5021330  23.2662400
  74.5557020  34.4033850  25.1871910  74.2071840  34.8597670  25.9530090
  74.2244720  33.5090980  25.2694340  76.1621390  47.5753450  29.3525100
  76.1191020  47.2046360  30.2339560  76.2932400  48.5131020  29.4926920
  79.8627420  49.1313040  24.9534820  79.6218780  49.3987600  24.0665340
  80.8030060  49.3018770  25.0085680  82.0681840  35.5945730  28.7091330
  82.0070730  36.1867560  29.4586740  83.0082220  35.4871690  28.5641590
  84.7056400  35.2515790  28.3483620  85.3196810  35.5695080  27.6864700
  85.2505960  34.7664380  28.9679480  75.2277660  33.9310050  28.4622680
  75.7760650  33.7498100  27.6988790  75.2932970  33.1404160  28.9978990
  76.0009420  50.5215700  26.4722880  75.4069740  50.3900400  27.2112920
  75.9933260  49.6853840  26.0064980  85.4464440  33.8147930  24.6752910
  84.5724280  34.1483040  24.4725840  85.3375190  33.3421110  25.5004780
  86.3536420  36.0218800  26.0594630  86.0249780  35.2070560  25.6796360
  87.3018720  35.9788610  25.9360320  75.6321650  47.8874080  25.4230920
  74.9055710  47.2679370  25.3556870  75.6930800  48.2814690  24.5529000
  79.2366750  50.1019080  22.2080330  79.7531770  49.4906440  21.6828590
  79.8864130  50.6047860  22.6991340  81.9762250  50.9927570  23.0349310
  82.2640060  50.7381870  22.1582320  82.4885470  50.4404930  23.6254880
  83.1939260  34.7317770  23.6145820  82.4111050  35.2063270  23.8942580
  82.9002190  33.8272600  23.5059000  73.9151650  51.2048470  18.6327680
  73.7473690  50.5719150  19.3309570  73.0486160  51.4107870  18.2821870
  74.5379670  35.0365250  16.1359540  75.2959030  35.1494130  15.5623570
  74.0756840  35.8734450  16.0902970  81.0793480  37.1504520  19.1261850
  80.2667990  36.7761410  18.7857730  81.5835120  36.3949600  19.4283040
  85.5818460  33.8146970  20.3644920  86.1847830  34.3867180  20.8393440
  84.8411450  34.3786410  20.1418820  75.5214350  49.8981700  16.0777820
  74.9961970  50.2789730  15.3739780  75.4458930  50.5232470  16.7987530
  76.9104820  35.5629300  14.6761510  77.4397580  34.7759100  14.5469460
  77.5433140  36.2420490  14.9097040  79.1042660  35.3004440  17.7306900
  78.4745400  34.5991750  17.8977030  78.5647800  36.0608570  17.5140060
  82.0434610  51.9143670  30.4017510  82.9701920  51.6787940  30.4453470
  82.0285040  52.7415670  29.9203540  79.2298220  34.5788420  30.1659390
  78.9482490  35.0822020  29.4020210  79.6117920  33.7810170  29.8001520
  78.1207320  51.8464080  14.9527070  78.8526140  51.5623360  14.4050960
  78.3800990  51.6077360  15.8426450  77.2822110  47.9628810  14.9573400
  76.6530990  48.4313910  15.5059230  77.3969940  47.1178030  15.3919590
  85.8313680  33.9942000  30.7439860  85.7179130  34.3136610  31.6391380
  86.6483420  34.3954510  30.4477140  82.8689870  43.7913490   2.9883870
  82.0931970  43.3113930   3.2782440  83.5202800  43.1119140   2.8140030
  76.8855700  44.1033300   3.8659630  76.0540580  43.8482010   4.2656140
  77.4936680  44.1744070   4.6017550  76.8656960  48.1373390   4.0617650
  77.1685000  47.2471130   3.8827870  77.6100550  48.6943610   3.8339900
  73.2580660  41.6640840   3.5341720  73.8296770  40.8963040   3.5345360
  73.2582200  41.9629600   2.6248330  82.3098860  46.4670680   2.9954030
  82.2407140  45.5260620   2.8343160  83.0718720  46.5572090   3.5676600
  74.5005530  37.0725200   5.3210650  74.3208370  36.1750950   5.6013410
  74.0985610  37.6197070   5.9957600  83.3404030  39.2741060   3.2222960
  83.7168850  38.4012940   3.1096630  83.2423540  39.6099760   2.3313400
  75.1192200  39.5685700   3.9292990  75.8002310  39.8324070   4.5480390
  74.8040250  38.7286570   4.2631000  79.3116770  40.6153060   3.0165580
  79.8194990  41.1134030   3.6570600  79.8430010  39.8388260   2.8404940
  77.5952870  35.2551620   7.2829000  77.5971310  35.7724010   6.4774900
  76.7657180  34.7781800   7.2598930  78.8455720  44.8946800   5.4602500
  78.5125100  45.5215720   6.1023570  79.0222400  45.4208680   4.6804170
  77.2768200  36.9661580   5.2899450  77.6185010  37.8103630   4.9953320
  76.3384010  37.1145320   5.4064790  78.0574820  46.8627600   7.2751680
  78.6748820  47.5378680   6.9936130  77.1967940  47.2715580   7.1839180
  86.5111150  50.1711140   3.9051500  86.5238310  49.7673430   3.0373760
  85.9586370  50.9458430   3.8012930  85.9096590  45.0740980   5.2334110
  86.3265380  44.8601090   4.3987570  86.6336410  45.3313770   5.8042730
  86.8200700  40.2597520   6.2705220  86.4071880  41.0851230   6.5245210
  86.0876650  39.6742560   6.0781580  79.4215190  46.7324980   3.2963100
  79.1243480  46.1270450   2.6170880  80.3715010  46.7702290   3.1852460
  77.6662110  39.8200630   4.9122930  78.2176700  39.9295970   4.1376180
  78.1805620  40.1938230   5.6278160  78.5133620  46.4706670   9.9470900
  77.6162150  46.6946640  10.1944300  78.5386490  46.5941610   8.9982300
  77.3404840  43.3419990   8.5228270  77.2012610  44.2142790   8.8915670
  76.4586200  42.9992800   8.3776210  79.1385190  49.2841690  10.7313420
  79.1100620  49.6884640   9.8641850  78.9750160  48.3552050  10.5685020
  73.2923490  45.1117540   4.4399180  73.3703910  45.2466310   3.4954900
  73.9065170  44.4033430   4.6327300  84.3550000  50.9609640   7.7572410
  84.8694670  50.8717650   8.5594840  83.5119080  51.3069340   8.0500320
  73.3483010  46.1531710   6.9793640  73.5114050  45.6837070   6.1613010
  73.8135460  45.6455270   7.6442480  78.1201780  35.2837470   2.0154210
  77.6769930  36.0647010   1.6838730  78.6786770  35.6067360   2.7225150
  82.4071590  38.1505990   7.6189530  81.9450960  38.3589010   8.4309470
  82.0049700  37.3365340   7.3160200  87.4076100  39.3714940   8.7486190
  86.5569690  39.0720690   9.0695260  87.2477890  39.6156950   7.8370010
  84.5025810  40.8716690  10.8484980  84.8279220  40.0380440  10.5087210
  85.2906140  41.3945210  10.9963310  80.1577680  35.8284800   3.8743810
  80.4550010  36.7347630   3.7935830  80.7063240  35.3403580   3.2603380
  80.3515210  41.3056620  10.4095730  80.2558810  40.3651350  10.2596130
  81.1947190  41.5271690  10.0143800  75.4825750  37.7170290   8.5629510
  75.0889140  38.5645500   8.7702290  74.7944150  37.0796660   8.7538150
  82.0570800  37.8005260  11.6326250  81.3669120  37.6077460  12.2672340
  82.8003100  38.0839900  12.1650550  72.7842800  35.6398750   2.5959590
  72.4955850  36.2101610   3.3084570  73.5288560  35.1603200   2.9590820
  84.3333770  41.6403700   4.4680170  83.6014890  42.1490510   4.8170270
  83.9358110  40.8233680   4.1668950  80.7711160  38.3157900   2.8732660
  80.7747220  37.8747850   2.0237200  81.6662280  38.6375230   2.9804480
  84.7959680  37.0937380   3.8803110  84.8132420  37.5446030   4.7244960
  84.5475260  36.1943020   4.0936550  74.9221990  45.5283140   9.1389450
  74.5376780  44.8876810   9.7372410  75.2334180  46.2319260   9.7084180
  81.0719130  42.3759680   4.6198070  81.4389260  41.9018250   5.3659410
  80.8824190  43.2501250   4.9606410  78.8618500  41.4168320   6.9382280
  78.5575570  42.2960300   7.1632640  79.8164960  41.4768110   6.9739720
  83.5307070  44.6903730   9.2144520  83.4644380  43.7699400   8.9602110
  82.9012210  44.7879170   9.9289160  74.9182230  42.2571060   8.0853640
  74.5597170  42.9224910   8.6726980  74.6236790  41.4254610   8.4566260
  78.1195350  42.7155300  10.9693190  77.8195490  42.8612480  10.0721010
  78.8906590  42.1560590  10.8766580  83.4623800  47.5124300   8.9648320
  83.4768340  46.5805260   8.7467230  82.7548900  47.5984060   9.6038090
  82.8957700  49.1541870   6.0588820  83.5399920  49.3601250   6.7362240
  83.2587140  48.3930270   5.6059670  84.1689780  47.1574220   4.7766270
  84.8112010  46.4567380   4.8898440  84.6939130  47.9372660   4.5963160
  85.9427400  47.9569120   7.9802330  86.2783640  48.5435810   8.6580250
  85.0227740  47.8261830   8.2100120  73.4930800  35.7464300   8.7625740
  72.7789320  35.9461220   9.3678350  73.9125840  34.9703870   9.1340540
  73.7803390  49.7344560   9.7492270  73.8894510  48.7939300   9.6087660
  73.1283950  49.9999310   9.1006000  81.7715980  48.0060450  11.1490390
  81.4512850  47.2869690  11.6936080  81.0974340  48.6815520  11.2226450
  84.9869580  38.2386610   6.5127190  85.3550400  37.4181820   6.8406760
  84.1267780  38.2988500   6.9282840  81.9471570  40.8926200   6.7365160
  82.4456820  41.3672020   7.4017010  82.0894520  39.9689720   6.9435190
  76.9203550  51.6167400   2.3726300  77.6566030  51.0682860   2.6434870
  77.3044470  52.4823410   2.2332290  75.9261830  50.8013470  11.5611880
  76.7274560  51.1225520  11.9747280  75.4113650  50.4409050  12.2831790
  84.7626460  46.9093340  11.5087290  84.1564620  46.9324940  10.7683040
  84.4580570  46.1776380  12.0454540  86.1926830  50.6373630  10.1196700
  87.1448580  50.5531650  10.0696940  86.0455050  51.3015340  10.7930490
  73.6459640  43.2886930  10.5047930  74.1498660  42.7094210  11.0764160
  72.9067060  43.5727160  11.0424300  80.6997580  44.6957920  10.0383450
  79.9343250  45.2642920   9.9538120  80.8813540  44.4034130   9.1451680
  75.6782720  41.4316520  11.3998000  75.7188060  41.1330390  12.3083230
  76.5328220  41.8324130  11.2405520  77.6188530  40.0108620   9.3672490
  77.0884990  39.5199570   8.7395830  78.2876600  40.4392820   8.8330420
  86.5166590  44.4778080   9.1313680  86.9307610  44.6323160   9.9804100
  85.5817590  44.6033300   9.2939460  78.1060830  36.9770990   9.4469780
  78.0117700  36.3591740   8.7220650  77.5258220  37.7037280   9.2199690
  80.8722270  35.5344230   6.4797170  80.4239570  35.5568490   5.6342720
  80.2387470  35.1363250   7.0767470  81.2781820  44.4298560   7.1009610
  81.6969930  45.2731290   6.9285850  80.3590450  44.5670600   6.8716390
  83.6145720  42.1614740   8.4847450  83.7341930  41.5655880   9.2242290
  84.4739720  42.1984430   8.0648750  85.9533620  42.7151930   7.0609960
  85.4268840  43.2394550   6.4575100  86.2964960  43.3479320   7.6919690
  79.1289240  50.7351570   8.2167340  78.5910330  51.4597630   7.8976040
  79.3823200  50.2581910   7.4264680  80.3814490  38.7036090   9.7423270
  80.9714180  38.3951940  10.4301090  79.5634730  38.2315840   9.8983170
  85.2007920  38.3201900   9.9756290  84.5123440  37.6583440   9.9106280
  85.9213940  37.8740170  10.4204750  81.9851450  51.9702780   8.4753990
  81.9110150  52.8737920   8.7826360  81.0830290  51.6514680   8.4476060
  73.8768950  50.1647960   4.5169240  73.4399940  50.3448760   5.3493390
  74.4446630  50.9222580   4.3750960  74.7469310  43.0620760   5.4161460
  75.1142350  42.9748160   6.2957480  74.1780130  42.2987310   5.3168320
  74.2985310  39.9729850   9.3219880  73.4041360  39.9396610   9.6613590
  74.8382860  40.1716640  10.0871130  74.8025020  34.2478180   3.6703100
  75.4501210  33.6975560   3.2298260  75.2226860  34.5021330   4.4918910
  74.5557020  34.4033850   6.4128420  74.2071840  34.8597670   7.1786600
  74.2244720  33.5090980   6.4950850  76.1621390  47.5753450  10.5781610
  76.1191020  47.2046360  11.4596070  76.2932400  48.5131020  10.7183430
  79.8627420  49.1313040   6.1791330  79.6218780  49.3987600   5.2921850
  80.8030060  49.3018770   6.2342190  82.0681840  35.5945730   9.9347840
  82.0070730  36.1867560  10.6843250  83.0082220  35.4871690   9.7898100
  84.7056400  35.2515790   9.5740130  85.3196810  35.5695080   8.9121210
  85.2505960  34.7664380  10.1935990  75.2277660  33.9310050   9.6879190
  75.7760650  33.7498100   8.9245300  75.2932970  33.1404160  10.2235500
  76.0009420  50.5215700   7.6979390  75.4069740  50.3900400   8.4369430
  75.9933260  49.6853840   7.2321490  85.4464440  33.8147930   5.9009420
  84.5724280  34.1483040   5.6982350  85.3375190  33.3421110   6.7261290
  86.3536420  36.0218800   7.2851140  86.0249780  35.2070560   6.9052870
  87.3018720  35.9788610   7.1616830  75.6321650  47.8874080   6.6487430
  74.9055710  47.2679370   6.5813380  75.6930800  48.2814690   5.7785510
  79.2366750  50.1019080   3.4336840  79.7531770  49.4906440   2.9085100
  79.8864130  50.6047860   3.9247850  81.9762250  50.9927570   4.2605820
  82.2640060  50.7381870   3.3838830  82.4885470  50.4404930   4.8511390
  83.1939260  34.7317770   4.8402330  82.4111050  35.2063270   5.1199090
  82.9002190  33.8272600   4.7315510  82.0434610  51.9143670  11.6274020
  82.9701920  51.6787940  11.6709980  82.0285040  52.7415670  11.1460050
  79.2298220  34.5788420  11.3915900  78.9482490  35.0822020  10.6276720
  79.6117920  33.7810170  11.0258030  85.8313680  33.9942000  11.9696370
  85.7179130  34.3136610  12.8647890  86.6483420  34.3954510  11.6733650
  84.7371830  23.2390980  76.2048560  84.6565880  22.3245590  75.9340270
  84.3236250  23.7358050  75.4988270  82.8689870  25.0170000  78.0857830
  82.0931970  24.5370440  78.3756400  83.5202800  24.3375650  77.9113990
  75.2947650  20.2891700  72.7475980  74.4064350  20.6307670  72.6455860
  75.5788840  20.0892020  71.8556810  73.2580660  22.8897350  78.6315680
  73.8296770  22.1219550  78.6319320  73.2582200  23.1886110  77.7222290
  83.1160610  31.7088200  76.4860950  82.4972050  32.1645700  75.9155390
  83.9712390  31.8639660  76.0850650  82.3098860  27.6927190  78.0927990
  82.2407140  26.7517130  77.9317120  83.0718720  27.7828600  78.6650560
  83.3404030  20.4997570  78.3196920  83.7168850  19.6269450  78.2070590
  83.2423540  20.8356270  77.4287360  77.4709040  18.8723200  73.7814360
  77.5775790  19.7726930  74.0883120  76.5601400  18.8241170  73.4909010
  79.3116770  21.8409570  78.1139540  79.8194990  22.3390540  78.7544560
  79.8430010  21.0644770  77.9378900  83.9823960  26.5927440  73.8792860
  83.3641230  27.0576890  73.3155580  84.4947210  27.2854920  74.2962370
  73.3507160  27.2783970  71.2532490  72.9735140  27.7671070  70.5217390
  73.6080230  27.9509250  71.8839020  80.9596090  15.6800360  76.7118000
  81.2671070  15.1247250  75.9953500  80.0296790  15.8144820  76.5290990
  83.3476850  23.7449190  73.4478120  82.4206130  23.6786570  73.6766590
  83.5001670  24.6829320  73.3333360  83.3345930  20.0166190  70.4445280
  82.3949600  20.1780150  70.5297740  83.6529190  20.7351870  69.8981270
  87.3774140  25.3069490  73.9513370  86.7586560  24.9689040  73.3039670
  87.3598590  24.6629250  74.6592560  78.9533490  24.2713930  76.2297850
  78.5490490  23.5591180  75.7343750  79.0396610  23.9267170  77.1185890
  79.4215190  27.9581490  78.3937060  79.1243480  27.3526960  77.7144840
  80.3715010  27.9958800  78.2826420  85.5538840  24.5456300  70.9586120
  85.9932120  23.7078730  70.8123940  86.2667260  25.1785700  71.0450260
  83.6634220  29.4852370  74.9267360  84.1030130  30.2276700  74.5122750
  83.6021110  29.7278940  75.8506320  75.6538120  23.1658910  73.7304500
  75.5335720  23.8921000  73.1185770  75.3439010  22.3961820  73.2532410
  74.5371120  28.0374240  75.9479320  74.1299200  28.1788830  75.0932920
  75.4284130  27.7534400  75.7450530  86.3304400  32.4721490  72.2830370
  86.1705540  32.1824430  73.1812200  86.1651110  31.6961620  71.7475600
  78.8092780  32.2520020  74.0601990  78.6335260  31.3355560  73.8469790
  77.9548520  32.6107310  74.2999790  86.0330530  29.9809050  70.8428370
  85.3395690  29.9786340  70.1830650  86.7753390  29.5568370  70.4122540
  85.5980460  31.6071760  74.9176860  86.0537410  30.8261140  75.2315480
  85.9372980  32.3178580  75.4618040  78.1201780  16.5093980  77.1128170
  77.6769930  17.2903520  76.7812690  78.6786770  16.8323870  77.8199110
  81.2360600  16.1304680  71.9934000  80.6114780  16.1264550  72.7187310
  81.1490720  15.2635640  71.5969970  77.9116000  21.6327550  74.8409420
  77.6856920  21.4164720  75.7456040  77.1308530  22.0656010  74.4955390
  85.1413760  21.6390920  73.4400070  84.5422650  22.3626720  73.2563690
  85.6893370  21.5767700  72.6576520  83.7478630  20.2754460  75.4703350
  84.1408200  20.5926660  74.6572040  84.1095480  19.3966340  75.5847870
  72.7842800  16.8655260  77.6933550  72.4955850  17.4358120  78.4058530
  73.5288560  16.3859710  78.0564780  72.9713030  20.8075380  68.9036270
  72.8887700  21.7506140  69.0451260  72.6196090  20.6650290  68.0248620
  80.7711160  19.5414410  77.9706620  80.7747220  19.1004360  77.1211160
  81.6662280  19.8631740  78.0778440  76.6213540  19.4240900  76.9300830
  76.2813590  19.9016130  77.6867880  75.8590860  18.9706020  76.5701930
  80.8331310  20.5426490  70.9613380  80.9544130  20.5012970  71.9099200
  80.4479820  21.4050640  70.8060110  79.8452810  22.8527630  70.3596680
  79.2769710  22.4045880  69.7332590  80.5541810  23.2120410  69.8261830
  73.9359620  18.3459880  75.8465500  73.6506540  17.9815550  76.6844120
  73.8738480  17.6140340  75.2328640  77.3900290  26.8485820  72.6323090
  76.6162550  26.3083440  72.4721810  78.1194920  26.3292430  72.2940850
  83.6098210  17.2389140  72.5678870  82.7962820  16.7402310  72.4924180
  83.4160160  18.0787390  72.1515220  86.3246600  21.6108790  70.8641030
  87.2126220  21.9226020  70.6892370  86.2951690  20.7381040  70.4721610
  77.4337690  26.5166200  76.2701900  77.9516360  25.7134460  76.2158790
  76.9821710  26.4545340  77.1118730  82.3207190  27.7832480  71.5429200
  82.6622890  28.5274710  71.0472520  81.4919900  28.0963600  71.9054030
  85.2034600  27.1048320  76.9074710  85.5558420  26.5076450  76.2476080
  84.3196930  26.7792550  77.0782960  81.2897880  27.8646010  74.3145120
  81.9769010  28.4115220  74.6952710  80.5030300  28.4086740  74.3494730
  73.4290280  23.4818830  69.8062200  74.2985130  23.7643630  70.0898120
  72.9380600  24.2954700  69.6911010  80.5925090  24.8692040  73.9270480
  81.0487870  25.6797290  74.1530670  80.2413300  24.5515180  74.7588970
  76.4936870  15.2129690  74.3993000  76.3651500  15.2047590  75.3477920
  75.6698890  15.5512780  74.0484010  73.7961530  32.6946210  70.3723830
  74.1559170  33.2935550  69.7181100  73.6553870  33.2406100  71.1458860
  79.8130150  30.0777410  71.1897500  79.8040250  30.8107100  70.5742010
  78.8928510  29.8308990  71.2824460  75.4136790  25.2992300  71.9344260
  74.8064740  26.0391200  71.9439560  75.8886140  25.3891660  71.1082460
  82.7989750  30.1405650  69.8522690  82.9001730  29.9369640  68.9224670
  81.8991490  29.8863930  70.0570470  80.3215640  20.6986010  73.8346590
  79.6131790  21.1672350  74.2760200  80.6060120  20.0408020  74.4691780
  84.3531070  17.4236670  75.2742380  84.2298850  17.4422800  74.3251890
  85.3015630  17.4715610  75.3940780  81.4407860  32.6591970  74.5470360
  81.6949360  32.6213360  73.6249730  80.4920340  32.5325300  74.5398610
  78.5250660  19.0071090  71.2097300  79.3741190  19.4441240  71.1437490
  78.1581930  19.3191350  72.0369360  77.4242080  25.2603450  69.6832830
  78.1905350  25.1484810  70.2458260  77.5016770  24.5641420  69.0309600
  76.1188840  22.6928520  70.3665720  76.1992430  21.7456030  70.4783120
  77.0108590  23.0235400  70.4726380  76.9203550  32.8423910  77.4700260
  77.6566030  32.2939370  77.7408830  77.3044470  33.7079920  77.3306250
  73.8049030  28.9097480  73.3441770  72.8788810  29.1518620  73.3347180
  74.2705460  29.7371740  73.2226520  80.0305860  32.0154220  69.2925830
  80.8234470  32.3043050  68.8407620  79.5110210  31.5846390  68.6138310
  80.5483260  27.2357630  69.1568180  80.4433900  26.6209980  69.8829560
  80.3807480  26.7123520  68.3731190  83.7885990  26.2977660  69.7610170
  83.2396090  26.7446960  70.4052910  84.4105250  25.7926910  70.2847840
  79.4561110  25.2568580  71.6575470  79.8777530  25.0908450  72.5006860
  79.5811950  24.4468810  71.1630610  81.9688750  24.2806190  68.9052570
  82.4894410  23.5655210  68.5393720  82.6157150  24.9192060  69.2053080
  78.3520010  21.3301810  68.6033630  78.1509070  20.4669170  68.9646970
  78.1812060  21.2435170  67.6655230  85.8308320  16.1410040  71.1320510
  86.1110610  15.2977940  71.4879930  85.0574050  16.3733150  71.6459260
  77.1502810  18.4302430  68.5911510  77.4528710  18.4369860  67.6830660
  77.8897400  18.0800290  69.0879170  80.3687740  17.3737050  69.5767710
  80.0209740  16.6961040  68.9970160  80.5700510  16.9126560  70.3911100
  82.5336780  32.3617800  71.1954310  83.4287570  32.7002770  71.2173070
  82.5654410  31.6397210  70.5678590  76.1732940  27.7344850  69.4241310
  76.6107810  28.2774520  70.0798890  76.6580670  26.9091800  69.4337650
  73.3878740  30.5233880  76.8761570  73.7181750  29.6554940  76.6440210
  73.8169740  30.7292400  77.7066530  77.9840660  28.8542890  74.5363540
  77.6836200  28.7307860  75.4367450  77.8778150  27.9951480  74.1279270
  73.7093380  23.9024700  75.9732080  73.0542220  23.6336340  75.3291780
  74.5471330  23.7929180  75.5234060  86.6583820  18.6965990  70.1950570
  87.0768700  18.5096970  69.3547230  86.3519880  17.8445040  70.5053500
  72.9231460  21.1123630  71.9157410  72.0195540  21.3753830  71.7409070
  73.4072080  21.3834800  71.1357370  75.4658670  20.1689170  69.8251790
  76.1750370  19.7472390  69.3399070  74.7498610  20.2364400  69.1935140
  75.1132830  16.2228500  68.8654440  75.8360960  16.7637440  69.1835660
  75.3857350  15.9491920  67.9895980  73.9151650  32.4304980  74.9558150
  73.7473690  31.7975660  75.6540040  73.0486160  32.6364380  74.6052340
  74.5379670  16.2621760  72.4590010  75.2959030  16.3750640  71.8854040
  74.0756840  17.0990960  72.4133440  81.0793480  18.3761030  75.4492320
  80.2667990  18.0017920  75.1088200  81.5835120  17.6206110  75.7513510
  85.5818460  15.0403480  76.6875390  86.1847830  15.6123690  77.1623910
  84.8411450  15.6042920  76.4649290  75.5214350  31.1238210  72.4008290
  74.9961970  31.5046240  71.6970250  75.4458930  31.7488980  73.1218000
  76.9104820  16.7885810  70.9991980  77.4397580  16.0015610  70.8699930
  77.5433140  17.4677000  71.2327510  79.1042660  16.5260950  74.0537370
  78.4745400  15.8248260  74.2207500  78.5647800  17.2865080  73.8370530
  78.1207320  33.0720590  71.2757540  78.8526140  32.7879870  70.7281430
  78.3800990  32.8333870  72.1656920  77.2822110  29.1885320  71.2803870
  76.6530990  29.6570420  71.8289700  77.3969940  28.3434540  71.7150060
  84.7371830  23.2390980  57.4305070  84.6565880  22.3245590  57.1596780
  84.3236250  23.7358050  56.7244780  82.8689870  25.0170000  59.3114340
  82.0931970  24.5370440  59.6012910  83.5202800  24.3375650  59.1370500
  76.8855700  25.3289810  60.1890100  76.0540580  25.0738520  60.5886610
  77.4936680  25.4000580  60.9248020  76.8656960  29.3629900  60.3848120
  77.1685000  28.4727640  60.2058340  77.6100550  29.9200120  60.1570370
  75.2947650  20.2891700  53.9732490  74.4064350  20.6307670  53.8712370
  75.5788840  20.0892020  53.0813320  73.2580660  22.8897350  59.8572190
  73.8296770  22.1219550  59.8575830  73.2582200  23.1886110  58.9478800
  83.1160610  31.7088200  57.7117460  82.4972050  32.1645700  57.1411900
  83.9712390  31.8639660  57.3107160  82.3098860  27.6927190  59.3184500
  82.2407140  26.7517130  59.1573630  83.0718720  27.7828600  59.8907070
  74.5005530  18.2981710  61.6441120  74.3208370  17.4007460  61.9243880
  74.0985610  18.8453580  62.3188070  83.3404030  20.4997570  59.5453430
  83.7168850  19.6269450  59.4327100  83.2423540  20.8356270  58.6543870
  77.4709040  18.8723200  55.0070870  77.5775790  19.7726930  55.3139630
  76.5601400  18.8241170  54.7165520  75.1192200  20.7942210  60.2523460
  75.8002310  21.0580580  60.8710860  74.8040250  19.9543080  60.5861470
  79.3116770  21.8409570  59.3396050  79.8194990  22.3390540  59.9801070
  79.8430010  21.0644770  59.1635410  77.5952870  16.4808130  63.6059470
  77.5971310  16.9980520  62.8005370  76.7657180  16.0038310  63.5829400
  83.9823960  26.5927440  55.1049370  83.3641230  27.0576890  54.5412090
  84.4947210  27.2854920  55.5218880  78.8455720  26.1203310  61.7832970
  78.5125100  26.7472230  62.4254040  79.0222400  26.6465190  61.0034640
  77.2768200  18.1918090  61.6129920  77.6185010  19.0360140  61.3183790
  76.3384010  18.3401830  61.7295260  78.0574820  28.0884110  63.5982150
  78.6748820  28.7635190  63.3166600  77.1967940  28.4972090  63.5069650
  73.3507160  27.2783970  52.4789000  72.9735140  27.7671070  51.7473900
  73.6080230  27.9509250  53.1095530  80.9596090  15.6800360  57.9374510
  81.2671070  15.1247250  57.2210010  80.0296790  15.8144820  57.7547500
  86.5111150  31.3967650  60.2281970  86.5238310  30.9929940  59.3604230
  85.9586370  32.1714940  60.1243400  85.9096590  26.2997490  61.5564580
  86.3265380  26.0857600  60.7218040  86.6336410  26.5570280  62.1273200
  83.3476850  23.7449190  54.6734630  82.4206130  23.6786570  54.9023100
  83.5001670  24.6829320  54.5589870  83.3345930  20.0166190  51.6701790
  82.3949600  20.1780150  51.7554250  83.6529190  20.7351870  51.1237780
  87.3774140  25.3069490  55.1769880  86.7586560  24.9689040  54.5296180
  87.3598590  24.6629250  55.8849070  86.8200700  21.4854030  62.5935690
  86.4071880  22.3107740  62.8475680  86.0876650  20.8999070  62.4012050
  78.9533490  24.2713930  57.4554360  78.5490490  23.5591180  56.9600260
  79.0396610  23.9267170  58.3442400  79.4215190  27.9581490  59.6193570
  79.1243480  27.3526960  58.9401350  80.3715010  27.9958800  59.5082930
  77.6662110  21.0457140  61.2353400  78.2176700  21.1552480  60.4606650
  78.1805620  21.4194740  61.9508630  78.5133620  27.6963180  66.2701370
  77.6162150  27.9203150  66.5174770  78.5386490  27.8198120  65.3212770
  85.5538840  24.5456300  52.1842630  85.9932120  23.7078730  52.0380450
  86.2667260  25.1785700  52.2706770  77.3404840  24.5676500  64.8458740
  77.2012610  25.4399300  65.2146140  76.4586200  24.2249310  64.7006680
  83.6634220  29.4852370  56.1523870  84.1030130  30.2276700  55.7379260
  83.6021110  29.7278940  57.0762830  79.1385190  30.5098200  67.0543890
  79.1100620  30.9141150  66.1872320  78.9750160  29.5808560  66.8915490
  75.6538120  23.1658910  54.9561010  75.5335720  23.8921000  54.3442280
  75.3439010  22.3961820  54.4788920  73.2923490  26.3374050  60.7629650
  73.3703910  26.4722820  59.8185370  73.9065170  25.6289940  60.9557770
  74.5371120  28.0374240  57.1735830  74.1299200  28.1788830  56.3189430
  75.4284130  27.7534400  56.9707040  84.3550000  32.1866150  64.0802880
  84.8694670  32.0974160  64.8825310  83.5119080  32.5325850  64.3730790
  86.3304400  32.4721490  53.5086880  86.1705540  32.1824430  54.4068710
  86.1651110  31.6961620  52.9732110  78.8092780  32.2520020  55.2858500
  78.6335260  31.3355560  55.0726300  77.9548520  32.6107310  55.5256300
  86.0330530  29.9809050  52.0684880  85.3395690  29.9786340  51.4087160
  86.7753390  29.5568370  51.6379050  85.5980460  31.6071760  56.1433370
  86.0537410  30.8261140  56.4571990  85.9372980  32.3178580  56.6874550
  73.3483010  27.3788220  63.3024110  73.5114050  26.9093580  62.4843480
  73.8135460  26.8711780  63.9672950  78.1201780  16.5093980  58.3384680
  77.6769930  17.2903520  58.0069200  78.6786770  16.8323870  59.0455620
  82.4071590  19.3762500  63.9420000  81.9450960  19.5845520  64.7539940
  82.0049700  18.5621850  63.6390670  87.4076100  20.5971450  65.0716660
  86.5569690  20.2977200  65.3925730  87.2477890  20.8413460  64.1600480
  84.5025810  22.0973200  67.1715450  84.8279220  21.2636950  66.8317680
  85.2906140  22.6201720  67.3193780  81.2360600  16.1304680  53.2190510
  80.6114780  16.1264550  53.9443820  81.1490720  15.2635640  52.8226480
  80.1577680  17.0541310  60.1974280  80.4550010  17.9604140  60.1166300
  80.7063240  16.5660090  59.5833850  77.9116000  21.6327550  56.0665930
  77.6856920  21.4164720  56.9712550  77.1308530  22.0656010  55.7211900
  85.1413760  21.6390920  54.6656580  84.5422650  22.3626720  54.4820200
  85.6893370  21.5767700  53.8833030  80.3515210  22.5313130  66.7326200
  80.2558810  21.5907860  66.5826600  81.1947190  22.7528200  66.3374270
  83.7478630  20.2754460  56.6959860  84.1408200  20.5926660  55.8828550
  84.1095480  19.3966340  56.8104380  75.4825750  18.9426800  64.8859980
  75.0889140  19.7902010  65.0932760  74.7944150  18.3053170  65.0768620
  82.0570800  19.0261770  67.9556720  81.3669120  18.8333970  68.5902810
  82.8003100  19.3096410  68.4881020  72.7842800  16.8655260  58.9190060
  72.4955850  17.4358120  59.6315040  73.5288560  16.3859710  59.2821290
  72.9713030  20.8075380  50.1292780  72.8887700  21.7506140  50.2707770
  72.6196090  20.6650290  49.2505130  84.3333770  22.8660210  60.7910640
  83.6014890  23.3747020  61.1400740  83.9358110  22.0490190  60.4899420
  80.7711160  19.5414410  59.1963130  80.7747220  19.1004360  58.3467670
  81.6662280  19.8631740  59.3034950  76.6213540  19.4240900  58.1557340
  76.2813590  19.9016130  58.9124390  75.8590860  18.9706020  57.7958440
  80.8331310  20.5426490  52.1869890  80.9544130  20.5012970  53.1355710
  80.4479820  21.4050640  52.0316620  84.7959680  18.3193890  60.2033580
  84.8132420  18.7702540  61.0475430  84.5475260  17.4199530  60.4167020
  79.8452810  22.8527630  51.5853190  79.2769710  22.4045880  50.9589100
  80.5541810  23.2120410  51.0518340  74.9221990  26.7539650  65.4619920
  74.5376780  26.1133320  66.0602880  75.2334180  27.4575770  66.0314650
  81.0719130  23.6016190  60.9428540  81.4389260  23.1274760  61.6889880
  80.8824190  24.4757760  61.2836880  73.9359620  18.3459880  57.0722010
  73.6506540  17.9815550  57.9100630  73.8738480  17.6140340  56.4585150
  78.8618500  22.6424830  63.2612750  78.5575570  23.5216810  63.4863110
  79.8164960  22.7024620  63.2970190  77.3900290  26.8485820  53.8579600
  76.6162550  26.3083440  53.6978320  78.1194920  26.3292430  53.5197360
  83.6098210  17.2389140  53.7935380  82.7962820  16.7402310  53.7180690
  83.4160160  18.0787390  53.3771730  83.5307070  25.9160240  65.5374990
  83.4644380  24.9955910  65.2832580  82.9012210  26.0135680  66.2519630
  86.3246600  21.6108790  52.0897540  87.2126220  21.9226020  51.9148880
  86.2951690  20.7381040  51.6978120  77.4337690  26.5166200  57.4958410
  77.9516360  25.7134460  57.4415300  76.9821710  26.4545340  58.3375240
  82.3207190  27.7832480  52.7685710  82.6622890  28.5274710  52.2729030
  81.4919900  28.0963600  53.1310540  74.9182230  23.4827570  64.4084110
  74.5597170  24.1481420  64.9957450  74.6236790  22.6511120  64.7796730
  78.1195350  23.9411810  67.2923660  77.8195490  24.0868990  66.3951480
  78.8906590  23.3817100  67.1997050  83.4623800  28.7380810  65.2878790
  83.4768340  27.8061770  65.0697700  82.7548900  28.8240570  65.9268560
  85.2034600  27.1048320  58.1331220  85.5558420  26.5076450  57.4732590
  84.3196930  26.7792550  58.3039470  81.2897880  27.8646010  55.5401630
  81.9769010  28.4115220  55.9209220  80.5030300  28.4086740  55.5751240
  73.4290280  23.4818830  51.0318710  74.2985130  23.7643630  51.3154630
  72.9380600  24.2954700  50.9167520  80.5925090  24.8692040  55.1526990
  81.0487870  25.6797290  55.3787180  80.2413300  24.5515180  55.9845480
  82.8957700  30.3798380  62.3819290  83.5399920  30.5857760  63.0592710
  83.2587140  29.6186780  61.9290140  76.4936870  15.2129690  55.6249510
  76.3651500  15.2047590  56.5734430  75.6698890  15.5512780  55.2740520
  84.1689780  28.3830730  61.0996740  84.8112010  27.6823890  61.2128910
  84.6939130  29.1629170  60.9193630  85.9427400  29.1825630  64.3032800
  86.2783640  29.7692320  64.9810720  85.0227740  29.0518340  64.5330590
  73.7961530  32.6946210  51.5980340  74.1559170  33.2935550  50.9437610
  73.6553870  33.2406100  52.3715370  73.4930800  16.9720810  65.0856210
  72.7789320  17.1717730  65.6908820  73.9125840  16.1960380  65.4571010
  73.7803390  30.9601070  66.0722740  73.8894510  30.0195810  65.9318130
  73.1283950  31.2255820  65.4236470  81.7715980  29.2316960  67.4720860
  81.4512850  28.5126200  68.0166550  81.0974340  29.9072030  67.5456920
  79.8130150  30.0777410  52.4154010  79.8040250  30.8107100  51.7998520
  78.8928510  29.8308990  52.5080970  75.4136790  25.2992300  53.1600770
  74.8064740  26.0391200  53.1696070  75.8886140  25.3891660  52.3338970
  84.9869580  19.4643120  62.8357660  85.3550400  18.6438330  63.1637230
  84.1267780  19.5245010  63.2513310  82.7989750  30.1405650  51.0779200
  82.9001730  29.9369640  50.1481180  81.8991490  29.8863930  51.2826980
  80.3215640  20.6986010  55.0603100  79.6131790  21.1672350  55.5016710
  80.6060120  20.0408020  55.6948290  81.9471570  22.1182710  63.0595630
  82.4456820  22.5928530  63.7247480  82.0894520  21.1946230  63.2665660
  84.3531070  17.4236670  56.4998890  84.2298850  17.4422800  55.5508400
  85.3015630  17.4715610  56.6197290  81.4407860  32.6591970  55.7726870
  81.6949360  32.6213360  54.8506240  80.4920340  32.5325300  55.7655120
  78.5250660  19.0071090  52.4353810  79.3741190  19.4441240  52.3694000
  78.1581930  19.3191350  53.2625870  77.4242080  25.2603450  50.9089340
  78.1905350  25.1484810  51.4714770  77.5016770  24.5641420  50.2566110
  76.1188840  22.6928520  51.5922230  76.1992430  21.7456030  51.7039630
  77.0108590  23.0235400  51.6982890  76.9203550  32.8423910  58.6956770
  77.6566030  32.2939370  58.9665340  77.3044470  33.7079920  58.5562760
  73.8049030  28.9097480  54.5698280  72.8788810  29.1518620  54.5603690
  74.2705460  29.7371740  54.4483030  75.9261830  32.0269980  67.8842350
  76.7274560  32.3482030  68.2977750  75.4113650  31.6665560  68.6062260
  80.0305860  32.0154220  50.5182340  80.8234470  32.3043050  50.0664130
  79.5110210  31.5846390  49.8394820  84.7626460  28.1349850  67.8317760
  84.1564620  28.1581450  67.0913510  84.4580570  27.4032890  68.3685010
  86.1926830  31.8630140  66.4427170  87.1448580  31.7788160  66.3927410
  86.0455050  32.5271850  67.1160960  73.6459640  24.5143440  66.8278400
  74.1498660  23.9350720  67.3994630  72.9067060  24.7983670  67.3654770
  80.5483260  27.2357630  50.3824690  80.4433900  26.6209980  51.1086070
  80.3807480  26.7123520  49.5987700  80.6997580  25.9214430  66.3613920
  79.9343250  26.4899430  66.2768590  80.8813540  25.6290640  65.4682150
  83.7885990  26.2977660  50.9866680  83.2396090  26.7446960  51.6309420
  84.4105250  25.7926910  51.5104350  75.6782720  22.6573030  67.7228470
  75.7188060  22.3586900  68.6313700  76.5328220  23.0580640  67.5635990
  79.4561110  25.2568580  52.8831980  79.8777530  25.0908450  53.7263370
  79.5811950  24.4468810  52.3887120  77.6188530  21.2365130  65.6902960
  77.0884990  20.7456080  65.0626300  78.2876600  21.6649330  65.1560890
  81.9688750  24.2806190  50.1309080  82.4894410  23.5655210  49.7650230
  82.6157150  24.9192060  50.4309590  86.5166590  25.7034590  65.4544150
  86.9307610  25.8579670  66.3034570  85.5817590  25.8289810  65.6169930
  78.1060830  18.2027500  65.7700250  78.0117700  17.5848250  65.0451120
  77.5258220  18.9293790  65.5430160  80.8722270  16.7600740  62.8027640
  80.4239570  16.7825000  61.9573190  80.2387470  16.3619760  63.3997940
  81.2781820  25.6555070  63.4240080  81.6969930  26.4987800  63.2516320
  80.3590450  25.7927110  63.1946860  83.6145720  23.3871250  64.8077920
  83.7341930  22.7912390  65.5472760  84.4739720  23.4240940  64.3879220
  85.9533620  23.9408440  63.3840430  85.4268840  24.4651060  62.7805570
  86.2964960  24.5735830  64.0150160  78.3520010  21.3301810  49.8290140
  78.1509070  20.4669170  50.1903480  78.1812060  21.2435170  48.8911740
  79.1289240  31.9608080  64.5397810  78.5910330  32.6854140  64.2206510
  79.3823200  31.4838420  63.7495150  80.3814490  19.9292600  66.0653740
  80.9714180  19.6208450  66.7531560  79.5634730  19.4572350  66.2213640
  85.2007920  19.5458410  66.2986760  84.5123440  18.8839950  66.2336750
  85.9213940  19.0996680  66.7435220  85.8308320  16.1410040  52.3577020
  86.1110610  15.2977940  52.7136440  85.0574050  16.3733150  52.8715770
  77.1502810  18.4302430  49.8168020  77.4528710  18.4369860  48.9087170
  77.8897400  18.0800290  50.3135680  81.9851450  33.1959290  64.7984460
  81.9110150  34.0994430  65.1056830  81.0830290  32.8771190  64.7706530
  80.3687740  17.3737050  50.8024220  80.0209740  16.6961040  50.2226670
  80.5700510  16.9126560  51.6167610  82.5336780  32.3617800  52.4210820
  83.4287570  32.7002770  52.4429580  82.5654410  31.6397210  51.7935100
  76.1732940  27.7344850  50.6497820  76.6107810  28.2774520  51.3055400
  76.6580670  26.9091800  50.6594160  73.3878740  30.5233880  58.1018080
  73.7181750  29.6554940  57.8696720  73.8169740  30.7292400  58.9323040
  77.9840660  28.8542890  55.7620050  77.6836200  28.7307860  56.6623960
  77.8778150  27.9951480  55.3535780  73.8768950  31.3904470  60.8399710
  73.4399940  31.5705270  61.6723860  74.4446630  32.1479090  60.6981430
  73.7093380  23.9024700  57.1988590  73.0542220  23.6336340  56.5548290
  74.5471330  23.7929180  56.7490570  86.6583820  18.6965990  51.4207080
  87.0768700  18.5096970  50.5803740  86.3519880  17.8445040  51.7310010
  74.7469310  24.2877270  61.7391930  75.1142350  24.2004670  62.6187950
  74.1780130  23.5243820  61.6398790  74.2985310  21.1986360  65.6450350
  73.4041360  21.1653120  65.9844060  74.8382860  21.3973150  66.4101600
  72.9231460  21.1123630  53.1413920  72.0195540  21.3753830  52.9665580
  73.4072080  21.3834800  52.3613880  75.4658670  20.1689170  51.0508300
  76.1750370  19.7472390  50.5655580  74.7498610  20.2364400  50.4191650
  75.1132830  16.2228500  50.0910950  75.8360960  16.7637440  50.4092170
  75.3857350  15.9491920  49.2152490  74.8025020  15.4734690  59.9933570
  75.4501210  14.9232070  59.5528730  75.2226860  15.7277840  60.8149380
  74.5557020  15.6290360  62.7358890  74.2071840  16.0854180  63.5017070
  74.2244720  14.7347490  62.8181320  76.1621390  28.8009960  66.9012080
  76.1191020  28.4302870  67.7826540  76.2932400  29.7387530  67.0413900
  79.8627420  30.3569550  62.5021800  79.6218780  30.6244110  61.6152320
  80.8030060  30.5275280  62.5572660  82.0681840  16.8202240  66.2578310
  82.0070730  17.4124070  67.0073720  83.0082220  16.7128200  66.1128570
  84.7056400  16.4772300  65.8970600  85.3196810  16.7951590  65.2351680
  85.2505960  15.9920890  66.5166460  75.2277660  15.1566560  66.0109660
  75.7760650  14.9754610  65.2475770  75.2932970  14.3660670  66.5465970
  76.0009420  31.7472210  64.0209860  75.4069740  31.6156910  64.7599900
  75.9933260  30.9110350  63.5551960  85.4464440  15.0404440  62.2239890
  84.5724280  15.3739550  62.0212820  85.3375190  14.5677620  63.0491760
  86.3536420  17.2475310  63.6081610  86.0249780  16.4327070  63.2283340
  87.3018720  17.2045120  63.4847300  75.6321650  29.1130590  62.9717900
  74.9055710  28.4935880  62.9043850  75.6930800  29.5071200  62.1015980
  79.2366750  31.3275590  59.7567310  79.7531770  30.7162950  59.2315570
  79.8864130  31.8304370  60.2478320  81.9762250  32.2184080  60.5836290
  82.2640060  31.9638380  59.7069300  82.4885470  31.6661440  61.1741860
  83.1939260  15.9574280  61.1632800  82.4111050  16.4319780  61.4429560
  82.9002190  15.0529110  61.0545980  73.9151650  32.4304980  56.1814660
  73.7473690  31.7975660  56.8796550  73.0486160  32.6364380  55.8308850
  74.5379670  16.2621760  53.6846520  75.2959030  16.3750640  53.1110550
  74.0756840  17.0990960  53.6389950  81.0793480  18.3761030  56.6748830
  80.2667990  18.0017920  56.3344710  81.5835120  17.6206110  56.9770020
  85.5818460  15.0403480  57.9131900  86.1847830  15.6123690  58.3880420
  84.8411450  15.6042920  57.6905800  75.5214350  31.1238210  53.6264800
  74.9961970  31.5046240  52.9226760  75.4458930  31.7488980  54.3474510
  76.9104820  16.7885810  52.2248490  77.4397580  16.0015610  52.0956440
  77.5433140  17.4677000  52.4584020  79.1042660  16.5260950  55.2793880
  78.4745400  15.8248260  55.4464010  78.5647800  17.2865080  55.0627040
  82.0434610  33.1400180  67.9504490  82.9701920  32.9044450  67.9940450
  82.0285040  33.9672180  67.4690520  79.2298220  15.8044930  67.7146370
  78.9482490  16.3078530  66.9507190  79.6117920  15.0066680  67.3488500
  78.1207320  33.0720590  52.5014050  78.8526140  32.7879870  51.9537940
  78.3800990  32.8333870  53.3913430  77.2822110  29.1885320  52.5060380
  76.6530990  29.6570420  53.0546210  77.3969940  28.3434540  52.9406570
  85.8313680  15.2198510  68.2926840  85.7179130  15.5393120  69.1878360
  86.6483420  15.6211020  67.9964120  84.7371830  23.2390980  38.6561580
  84.6565880  22.3245590  38.3853290  84.3236250  23.7358050  37.9501290
  82.8689870  25.0170000  40.5370850  82.0931970  24.5370440  40.8269420
  83.5202800  24.3375650  40.3627010  76.8855700  25.3289810  41.4146610
  76.0540580  25.0738520  41.8143120  77.4936680  25.4000580  42.1504530
  76.8656960  29.3629900  41.6104630  77.1685000  28.4727640  41.4314850
  77.6100550  29.9200120  41.3826880  75.2947650  20.2891700  35.1989000
  74.4064350  20.6307670  35.0968880  75.5788840  20.0892020  34.3069830
  73.2580660  22.8897350  41.0828700  73.8296770  22.1219550  41.0832340
  73.2582200  23.1886110  40.1735310  83.1160610  31.7088200  38.9373970
  82.4972050  32.1645700  38.3668410  83.9712390  31.8639660  38.5363670
  82.3098860  27.6927190  40.5441010  82.2407140  26.7517130  40.3830140
  83.0718720  27.7828600  41.1163580  74.5005530  18.2981710  42.8697630
  74.3208370  17.4007460  43.1500390  74.0985610  18.8453580  43.5444580
  83.3404030  20.4997570  40.7709940  83.7168850  19.6269450  40.6583610
  83.2423540  20.8356270  39.8800380  77.4709040  18.8723200  36.2327380
  77.5775790  19.7726930  36.5396140  76.5601400  18.8241170  35.9422030
  75.1192200  20.7942210  41.4779970  75.8002310  21.0580580  42.0967370
  74.8040250  19.9543080  41.8117980  79.3116770  21.8409570  40.5652560
  79.8194990  22.3390540  41.2057580  79.8430010  21.0644770  40.3891920
  77.5952870  16.4808130  44.8315980  77.5971310  16.9980520  44.0261880
  76.7657180  16.0038310  44.8085910  83.9823960  26.5927440  36.3305880
  83.3641230  27.0576890  35.7668600  84.4947210  27.2854920  36.7475390
  78.8455720  26.1203310  43.0089480  78.5125100  26.7472230  43.6510550
  79.0222400  26.6465190  42.2291150  77.2768200  18.1918090  42.8386430
  77.6185010  19.0360140  42.5440300  76.3384010  18.3401830  42.9551770
  78.0574820  28.0884110  44.8238660  78.6748820  28.7635190  44.5423110
  77.1967940  28.4972090  44.7326160  73.3507160  27.2783970  33.7045510
  72.9735140  27.7671070  32.9730410  73.6080230  27.9509250  34.3352040
  80.9596090  15.6800360  39.1631020  81.2671070  15.1247250  38.4466520
  80.0296790  15.8144820  38.9804010  86.5111150  31.3967650  41.4538480
  86.5238310  30.9929940  40.5860740  85.9586370  32.1714940  41.3499910
  85.9096590  26.2997490  42.7821090  86.3265380  26.0857600  41.9474550
  86.6336410  26.5570280  43.3529710  83.3476850  23.7449190  35.8991140
  82.4206130  23.6786570  36.1279610  83.5001670  24.6829320  35.7846380
  83.3345930  20.0166190  32.8958300  82.3949600  20.1780150  32.9810760
  83.6529190  20.7351870  32.3494290  87.3774140  25.3069490  36.4026390
  86.7586560  24.9689040  35.7552690  87.3598590  24.6629250  37.1105580
  86.8200700  21.4854030  43.8192200  86.4071880  22.3107740  44.0732190
  86.0876650  20.8999070  43.6268560  78.9533490  24.2713930  38.6810870
  78.5490490  23.5591180  38.1856770  79.0396610  23.9267170  39.5698910
  79.4215190  27.9581490  40.8450080  79.1243480  27.3526960  40.1657860
  80.3715010  27.9958800  40.7339440  77.6662110  21.0457140  42.4609910
  78.2176700  21.1552480  41.6863160  78.1805620  21.4194740  43.1765140
  78.5133620  27.6963180  47.4957880  77.6162150  27.9203150  47.7431280
  78.5386490  27.8198120  46.5469280  85.5538840  24.5456300  33.4099140
  85.9932120  23.7078730  33.2636960  86.2667260  25.1785700  33.4963280
  77.3404840  24.5676500  46.0715250  77.2012610  25.4399300  46.4402650
  76.4586200  24.2249310  45.9263190  83.6634220  29.4852370  37.3780380
  84.1030130  30.2276700  36.9635770  83.6021110  29.7278940  38.3019340
  79.1385190  30.5098200  48.2800400  79.1100620  30.9141150  47.4128830
  78.9750160  29.5808560  48.1172000  75.6538120  23.1658910  36.1817520
  75.5335720  23.8921000  35.5698790  75.3439010  22.3961820  35.7045430
  73.2923490  26.3374050  41.9886160  73.3703910  26.4722820  41.0441880
  73.9065170  25.6289940  42.1814280  74.5371120  28.0374240  38.3992340
  74.1299200  28.1788830  37.5445940  75.4284130  27.7534400  38.1963550
  84.3550000  32.1866150  45.3059390  84.8694670  32.0974160  46.1081820
  83.5119080  32.5325850  45.5987300  86.3304400  32.4721490  34.7343390
  86.1705540  32.1824430  35.6325220  86.1651110  31.6961620  34.1988620
  78.8092780  32.2520020  36.5115010  78.6335260  31.3355560  36.2982810
  77.9548520  32.6107310  36.7512810  86.0330530  29.9809050  33.2941390
  85.3395690  29.9786340  32.6343670  86.7753390  29.5568370  32.8635560
  85.5980460  31.6071760  37.3689880  86.0537410  30.8261140  37.6828500
  85.9372980  32.3178580  37.9131060  73.3483010  27.3788220  44.5280620
  73.5114050  26.9093580  43.7099990  73.8135460  26.8711780  45.1929460
  78.1201780  16.5093980  39.5641190  77.6769930  17.2903520  39.2325710
  78.6786770  16.8323870  40.2712130  82.4071590  19.3762500  45.1676510
  81.9450960  19.5845520  45.9796450  82.0049700  18.5621850  44.8647180
  87.4076100  20.5971450  46.2973170  86.5569690  20.2977200  46.6182240
  87.2477890  20.8413460  45.3856990  84.5025810  22.0973200  48.3971960
  84.8279220  21.2636950  48.0574190  85.2906140  22.6201720  48.5450290
  81.2360600  16.1304680  34.4447020  80.6114780  16.1264550  35.1700330
  81.1490720  15.2635640  34.0482990  80.1577680  17.0541310  41.4230790
  80.4550010  17.9604140  41.3422810  80.7063240  16.5660090  40.8090360
  77.9116000  21.6327550  37.2922440  77.6856920  21.4164720  38.1969060
  77.1308530  22.0656010  36.9468410  85.1413760  21.6390920  35.8913090
  84.5422650  22.3626720  35.7076710  85.6893370  21.5767700  35.1089540
  80.3515210  22.5313130  47.9582710  80.2558810  21.5907860  47.8083110
  81.1947190  22.7528200  47.5630780  83.7478630  20.2754460  37.9216370
  84.1408200  20.5926660  37.1085060  84.1095480  19.3966340  38.0360890
  75.4825750  18.9426800  46.1116490  75.0889140  19.7902010  46.3189270
  74.7944150  18.3053170  46.3025130  82.0570800  19.0261770  49.1813230
  81.3669120  18.8333970  49.8159320  82.8003100  19.3096410  49.7137530
  72.7842800  16.8655260  40.1446570  72.4955850  17.4358120  40.8571550
  73.5288560  16.3859710  40.5077800  72.9713030  20.8075380  31.3549290
  72.8887700  21.7506140  31.4964280  72.6196090  20.6650290  30.4761640
  84.3333770  22.8660210  42.0167150  83.6014890  23.3747020  42.3657250
  83.9358110  22.0490190  41.7155930  80.7711160  19.5414410  40.4219640
  80.7747220  19.1004360  39.5724180  81.6662280  19.8631740  40.5291460
  76.6213540  19.4240900  39.3813850  76.2813590  19.9016130  40.1380900
  75.8590860  18.9706020  39.0214950  80.8331310  20.5426490  33.4126400
  80.9544130  20.5012970  34.3612220  80.4479820  21.4050640  33.2573130
  84.7959680  18.3193890  41.4290090  84.8132420  18.7702540  42.2731940
  84.5475260  17.4199530  41.6423530  79.8452810  22.8527630  32.8109700
  79.2769710  22.4045880  32.1845610  80.5541810  23.2120410  32.2774850
  74.9221990  26.7539650  46.6876430  74.5376780  26.1133320  47.2859390
  75.2334180  27.4575770  47.2571160  81.0719130  23.6016190  42.1685050
  81.4389260  23.1274760  42.9146390  80.8824190  24.4757760  42.5093390
  73.9359620  18.3459880  38.2978520  73.6506540  17.9815550  39.1357140
  73.8738480  17.6140340  37.6841660  78.8618500  22.6424830  44.4869260
  78.5575570  23.5216810  44.7119620  79.8164960  22.7024620  44.5226700
  77.3900290  26.8485820  35.0836110  76.6162550  26.3083440  34.9234830
  78.1194920  26.3292430  34.7453870  83.6098210  17.2389140  35.0191890
  82.7962820  16.7402310  34.9437200  83.4160160  18.0787390  34.6028240
  83.5307070  25.9160240  46.7631500  83.4644380  24.9955910  46.5089090
  82.9012210  26.0135680  47.4776140  86.3246600  21.6108790  33.3154050
  87.2126220  21.9226020  33.1405390  86.2951690  20.7381040  32.9234630
  77.4337690  26.5166200  38.7214920  77.9516360  25.7134460  38.6671810
  76.9821710  26.4545340  39.5631750  82.3207190  27.7832480  33.9942220
  82.6622890  28.5274710  33.4985540  81.4919900  28.0963600  34.3567050
  74.9182230  23.4827570  45.6340620  74.5597170  24.1481420  46.2213960
  74.6236790  22.6511120  46.0053240  78.1195350  23.9411810  48.5180170
  77.8195490  24.0868990  47.6207990  78.8906590  23.3817100  48.4253560
  83.4623800  28.7380810  46.5135300  83.4768340  27.8061770  46.2954210
  82.7548900  28.8240570  47.1525070  85.2034600  27.1048320  39.3587730
  85.5558420  26.5076450  38.6989100  84.3196930  26.7792550  39.5295980
  81.2897880  27.8646010  36.7658140  81.9769010  28.4115220  37.1465730
  80.5030300  28.4086740  36.8007750  73.4290280  23.4818830  32.2575220
  74.2985130  23.7643630  32.5411140  72.9380600  24.2954700  32.1424030
  80.5925090  24.8692040  36.3783500  81.0487870  25.6797290  36.6043690
  80.2413300  24.5515180  37.2101990  82.8957700  30.3798380  43.6075800
  83.5399920  30.5857760  44.2849220  83.2587140  29.6186780  43.1546650
  76.4936870  15.2129690  36.8506020  76.3651500  15.2047590  37.7990940
  75.6698890  15.5512780  36.4997030  84.1689780  28.3830730  42.3253250
  84.8112010  27.6823890  42.4385420  84.6939130  29.1629170  42.1450140
  85.9427400  29.1825630  45.5289310  86.2783640  29.7692320  46.2067230
  85.0227740  29.0518340  45.7587100  73.7961530  32.6946210  32.8236850
  74.1559170  33.2935550  32.1694120  73.6553870  33.2406100  33.5971880
  73.4930800  16.9720810  46.3112720  72.7789320  17.1717730  46.9165330
  73.9125840  16.1960380  46.6827520  73.7803390  30.9601070  47.2979250
  73.8894510  30.0195810  47.1574640  73.1283950  31.2255820  46.6492980
  81.7715980  29.2316960  48.6977370  81.4512850  28.5126200  49.2423060
  81.0974340  29.9072030  48.7713430  79.8130150  30.0777410  33.6410520
  79.8040250  30.8107100  33.0255030  78.8928510  29.8308990  33.7337480
  75.4136790  25.2992300  34.3857280  74.8064740  26.0391200  34.3952580
  75.8886140  25.3891660  33.5595480  84.9869580  19.4643120  44.0614170
  85.3550400  18.6438330  44.3893740  84.1267780  19.5245010  44.4769820
  82.7989750  30.1405650  32.3035710  82.9001730  29.9369640  31.3737690
  81.8991490  29.8863930  32.5083490  80.3215640  20.6986010  36.2859610
  79.6131790  21.1672350  36.7273220  80.6060120  20.0408020  36.9204800
  81.9471570  22.1182710  44.2852140  82.4456820  22.5928530  44.9503990
  82.0894520  21.1946230  44.4922170  84.3531070  17.4236670  37.7255400
  84.2298850  17.4422800  36.7764910  85.3015630  17.4715610  37.8453800
  81.4407860  32.6591970  36.9983380  81.6949360  32.6213360  36.0762750
  80.4920340  32.5325300  36.9911630  78.5250660  19.0071090  33.6610320
  79.3741190  19.4441240  33.5950510  78.1581930  19.3191350  34.4882380
  77.4242080  25.2603450  32.1345850  78.1905350  25.1484810  32.6971280
  77.5016770  24.5641420  31.4822620  76.1188840  22.6928520  32.8178740
  76.1992430  21.7456030  32.9296140  77.0108590  23.0235400  32.9239400
  76.9203550  32.8423910  39.9213280  77.6566030  32.2939370  40.1921850
  77.3044470  33.7079920  39.7819270  73.8049030  28.9097480  35.7954790
  72.8788810  29.1518620  35.7860200  74.2705460  29.7371740  35.6739540
  75.9261830  32.0269980  49.1098860  76.7274560  32.3482030  49.5234260
  75.4113650  31.6665560  49.8318770  80.0305860  32.0154220  31.7438850
  80.8234470  32.3043050  31.2920640  79.5110210  31.5846390  31.0651330
  84.7626460  28.1349850  49.0574270  84.1564620  28.1581450  48.3170020
  84.4580570  27.4032890  49.5941520  86.1926830  31.8630140  47.6683680
  87.1448580  31.7788160  47.6183920  86.0455050  32.5271850  48.3417470
  73.6459640  24.5143440  48.0534910  74.1498660  23.9350720  48.6251140
  72.9067060  24.7983670  48.5911280  80.5483260  27.2357630  31.6081200
  80.4433900  26.6209980  32.3342580  80.3807480  26.7123520  30.8244210
  80.6997580  25.9214430  47.5870430  79.9343250  26.4899430  47.5025100
  80.8813540  25.6290640  46.6938660  83.7885990  26.2977660  32.2123190
  83.2396090  26.7446960  32.8565930  84.4105250  25.7926910  32.7360860
  75.6782720  22.6573030  48.9484980  75.7188060  22.3586900  49.8570210
  76.5328220  23.0580640  48.7892500  79.4561110  25.2568580  34.1088490
  79.8777530  25.0908450  34.9519880  79.5811950  24.4468810  33.6143630
  77.6188530  21.2365130  46.9159470  77.0884990  20.7456080  46.2882810
  78.2876600  21.6649330  46.3817400  81.9688750  24.2806190  31.3565590
  82.4894410  23.5655210  30.9906740  82.6157150  24.9192060  31.6566100
  86.5166590  25.7034590  46.6800660  86.9307610  25.8579670  47.5291080
  85.5817590  25.8289810  46.8426440  78.1060830  18.2027500  46.9956760
  78.0117700  17.5848250  46.2707630  77.5258220  18.9293790  46.7686670
  80.8722270  16.7600740  44.0284150  80.4239570  16.7825000  43.1829700
  80.2387470  16.3619760  44.6254450  81.2781820  25.6555070  44.6496590
  81.6969930  26.4987800  44.4772830  80.3590450  25.7927110  44.4203370
  83.6145720  23.3871250  46.0334430  83.7341930  22.7912390  46.7729270
  84.4739720  23.4240940  45.6135730  85.9533620  23.9408440  44.6096940
  85.4268840  24.4651060  44.0062080  86.2964960  24.5735830  45.2406670
  78.3520010  21.3301810  31.0546650  78.1509070  20.4669170  31.4159990
  78.1812060  21.2435170  30.1168250  79.1289240  31.9608080  45.7654320
  78.5910330  32.6854140  45.4463020  79.3823200  31.4838420  44.9751660
  80.3814490  19.9292600  47.2910250  80.9714180  19.6208450  47.9788070
  79.5634730  19.4572350  47.4470150  85.2007920  19.5458410  47.5243270
  84.5123440  18.8839950  47.4593260  85.9213940  19.0996680  47.9691730
  85.8308320  16.1410040  33.5833530  86.1110610  15.2977940  33.9392950
  85.0574050  16.3733150  34.0972280  77.1502810  18.4302430  31.0424530
  77.4528710  18.4369860  30.1343680  77.8897400  18.0800290  31.5392190
  81.9851450  33.1959290  46.0240970  81.9110150  34.0994430  46.3313340
  81.0830290  32.8771190  45.9963040  80.3687740  17.3737050  32.0280730
  80.0209740  16.6961040  31.4483180  80.5700510  16.9126560  32.8424120
  82.5336780  32.3617800  33.6467330  83.4287570  32.7002770  33.6686090
  82.5654410  31.6397210  33.0191610  76.1732940  27.7344850  31.8754330
  76.6107810  28.2774520  32.5311910  76.6580670  26.9091800  31.8850670
  73.3878740  30.5233880  39.3274590  73.7181750  29.6554940  39.0953230
  73.8169740  30.7292400  40.1579550  77.9840660  28.8542890  36.9876560
  77.6836200  28.7307860  37.8880470  77.8778150  27.9951480  36.5792290
  73.8768950  31.3904470  42.0656220  73.4399940  31.5705270  42.8980370
  74.4446630  32.1479090  41.9237940  73.7093380  23.9024700  38.4245100
  73.0542220  23.6336340  37.7804800  74.5471330  23.7929180  37.9747080
  86.6583820  18.6965990  32.6463590  87.0768700  18.5096970  31.8060250
  86.3519880  17.8445040  32.9566520  74.7469310  24.2877270  42.9648440
  75.1142350  24.2004670  43.8444460  74.1780130  23.5243820  42.8655300
  74.2985310  21.1986360  46.8706860  73.4041360  21.1653120  47.2100570
  74.8382860  21.3973150  47.6358110  72.9231460  21.1123630  34.3670430
  72.0195540  21.3753830  34.1922090  73.4072080  21.3834800  33.5870390
  75.4658670  20.1689170  32.2764810  76.1750370  19.7472390  31.7912090
  74.7498610  20.2364400  31.6448160  75.1132830  16.2228500  31.3167460
  75.8360960  16.7637440  31.6348680  75.3857350  15.9491920  30.4409000
  74.8025020  15.4734690  41.2190080  75.4501210  14.9232070  40.7785240
  75.2226860  15.7277840  42.0405890  74.5557020  15.6290360  43.9615400
  74.2071840  16.0854180  44.7273580  74.2244720  14.7347490  44.0437830
  76.1621390  28.8009960  48.1268590  76.1191020  28.4302870  49.0083050
  76.2932400  29.7387530  48.2670410  79.8627420  30.3569550  43.7278310
  79.6218780  30.6244110  42.8408830  80.8030060  30.5275280  43.7829170
  82.0681840  16.8202240  47.4834820  82.0070730  17.4124070  48.2330230
  83.0082220  16.7128200  47.3385080  84.7056400  16.4772300  47.1227110
  85.3196810  16.7951590  46.4608190  85.2505960  15.9920890  47.7422970
  75.2277660  15.1566560  47.2366170  75.7760650  14.9754610  46.4732280
  75.2932970  14.3660670  47.7722480  76.0009420  31.7472210  45.2466370
  75.4069740  31.6156910  45.9856410  75.9933260  30.9110350  44.7808470
  85.4464440  15.0404440  43.4496400  84.5724280  15.3739550  43.2469330
  85.3375190  14.5677620  44.2748270  86.3536420  17.2475310  44.8338120
  86.0249780  16.4327070  44.4539850  87.3018720  17.2045120  44.7103810
  75.6321650  29.1130590  44.1974410  74.9055710  28.4935880  44.1300360
  75.6930800  29.5071200  43.3272490  79.2366750  31.3275590  40.9823820
  79.7531770  30.7162950  40.4572080  79.8864130  31.8304370  41.4734830
  81.9762250  32.2184080  41.8092800  82.2640060  31.9638380  40.9325810
  82.4885470  31.6661440  42.3998370  83.1939260  15.9574280  42.3889310
  82.4111050  16.4319780  42.6686070  82.9002190  15.0529110  42.2802490
  73.9151650  32.4304980  37.4071170  73.7473690  31.7975660  38.1053060
  73.0486160  32.6364380  37.0565360  74.5379670  16.2621760  34.9103030
  75.2959030  16.3750640  34.3367060  74.0756840  17.0990960  34.8646460
  81.0793480  18.3761030  37.9005340  80.2667990  18.0017920  37.5601220
  81.5835120  17.6206110  38.2026530  85.5818460  15.0403480  39.1388410
  86.1847830  15.6123690  39.6136930  84.8411450  15.6042920  38.9162310
  75.5214350  31.1238210  34.8521310  74.9961970  31.5046240  34.1483270
  75.4458930  31.7488980  35.5731020  76.9104820  16.7885810  33.4505000
  77.4397580  16.0015610  33.3212950  77.5433140  17.4677000  33.6840530
  79.1042660  16.5260950  36.5050390  78.4745400  15.8248260  36.6720520
  78.5647800  17.2865080  36.2883550  82.0434610  33.1400180  49.1761000
  82.9701920  32.9044450  49.2196960  82.0285040  33.9672180  48.6947030
  79.2298220  15.8044930  48.9402880  78.9482490  16.3078530  48.1763700
  79.6117920  15.0066680  48.5745010  78.1207320  33.0720590  33.7270560
  78.8526140  32.7879870  33.1794450  78.3800990  32.8333870  34.6169940
  77.2822110  29.1885320  33.7316890  76.6530990  29.6570420  34.2802720
  77.3969940  28.3434540  34.1663080  85.8313680  15.2198510  49.5183350
  85.7179130  15.5393120  50.4134870  86.6483420  15.6211020  49.2220630
  84.7371830  23.2390980  19.8818090  84.6565880  22.3245590  19.6109800
  84.3236250  23.7358050  19.1757800  82.8689870  25.0170000  21.7627360
  82.0931970  24.5370440  22.0525930  83.5202800  24.3375650  21.5883520
  76.8855700  25.3289810  22.6403120  76.0540580  25.0738520  23.0399630
  77.4936680  25.4000580  23.3761040  76.8656960  29.3629900  22.8361140
  77.1685000  28.4727640  22.6571360  77.6100550  29.9200120  22.6083390
  75.2947650  20.2891700  16.4245510  74.4064350  20.6307670  16.3225390
  75.5788840  20.0892020  15.5326340  73.2580660  22.8897350  22.3085210
  73.8296770  22.1219550  22.3088850  73.2582200  23.1886110  21.3991820
  83.1160610  31.7088200  20.1630480  82.4972050  32.1645700  19.5924920
  83.9712390  31.8639660  19.7620180  82.3098860  27.6927190  21.7697520
  82.2407140  26.7517130  21.6086650  83.0718720  27.7828600  22.3420090
  74.5005530  18.2981710  24.0954140  74.3208370  17.4007460  24.3756900
  74.0985610  18.8453580  24.7701090  83.3404030  20.4997570  21.9966450
  83.7168850  19.6269450  21.8840120  83.2423540  20.8356270  21.1056890
  77.4709040  18.8723200  17.4583890  77.5775790  19.7726930  17.7652650
  76.5601400  18.8241170  17.1678540  75.1192200  20.7942210  22.7036480
  75.8002310  21.0580580  23.3223880  74.8040250  19.9543080  23.0374490
  79.3116770  21.8409570  21.7909070  79.8194990  22.3390540  22.4314090
  79.8430010  21.0644770  21.6148430  77.5952870  16.4808130  26.0572490
  77.5971310  16.9980520  25.2518390  76.7657180  16.0038310  26.0342420
  83.9823960  26.5927440  17.5562390  83.3641230  27.0576890  16.9925110
  84.4947210  27.2854920  17.9731900  78.8455720  26.1203310  24.2345990
  78.5125100  26.7472230  24.8767060  79.0222400  26.6465190  23.4547660
  77.2768200  18.1918090  24.0642940  77.6185010  19.0360140  23.7696810
  76.3384010  18.3401830  24.1808280  78.0574820  28.0884110  26.0495170
  78.6748820  28.7635190  25.7679620  77.1967940  28.4972090  25.9582670
  73.3507160  27.2783970  14.9302020  72.9735140  27.7671070  14.1986920
  73.6080230  27.9509250  15.5608550  80.9596090  15.6800360  20.3887530
  81.2671070  15.1247250  19.6723030  80.0296790  15.8144820  20.2060520
  86.5111150  31.3967650  22.6794990  86.5238310  30.9929940  21.8117250
  85.9586370  32.1714940  22.5756420  85.9096590  26.2997490  24.0077600
  86.3265380  26.0857600  23.1731060  86.6336410  26.5570280  24.5786220
  83.3476850  23.7449190  17.1247650  82.4206130  23.6786570  17.3536120
  83.5001670  24.6829320  17.0102890  83.3345930  20.0166190  14.1214810
  82.3949600  20.1780150  14.2067270  83.6529190  20.7351870  13.5750800
  87.3774140  25.3069490  17.6282900  86.7586560  24.9689040  16.9809200
  87.3598590  24.6629250  18.3362090  86.8200700  21.4854030  25.0448710
  86.4071880  22.3107740  25.2988700  86.0876650  20.8999070  24.8525070
  78.9533490  24.2713930  19.9067380  78.5490490  23.5591180  19.4113280
  79.0396610  23.9267170  20.7955420  79.4215190  27.9581490  22.0706590
  79.1243480  27.3526960  21.3914370  80.3715010  27.9958800  21.9595950
  77.6662110  21.0457140  23.6866420  78.2176700  21.1552480  22.9119670
  78.1805620  21.4194740  24.4021650  78.5133620  27.6963180  28.7214390
  77.6162150  27.9203150  28.9687790  78.5386490  27.8198120  27.7725790
  85.5538840  24.5456300  14.6355650  85.9932120  23.7078730  14.4893470
  86.2667260  25.1785700  14.7219790  77.3404840  24.5676500  27.2971760
  77.2012610  25.4399300  27.6659160  76.4586200  24.2249310  27.1519700
  83.6634220  29.4852370  18.6036890  84.1030130  30.2276700  18.1892280
  83.6021110  29.7278940  19.5275850  79.1385190  30.5098200  29.5056910
  79.1100620  30.9141150  28.6385340  78.9750160  29.5808560  29.3428510
  75.6538120  23.1658910  17.4074030  75.5335720  23.8921000  16.7955300
  75.3439010  22.3961820  16.9301940  73.2923490  26.3374050  23.2142670
  73.3703910  26.4722820  22.2698390  73.9065170  25.6289940  23.4070790
  74.5371120  28.0374240  19.6248850  74.1299200  28.1788830  18.7702450
  75.4284130  27.7534400  19.4220060  84.3550000  32.1866150  26.5315900
  84.8694670  32.0974160  27.3338330  83.5119080  32.5325850  26.8243810
  86.3304400  32.4721490  15.9599900  86.1705540  32.1824430  16.8581730
  86.1651110  31.6961620  15.4245130  78.8092780  32.2520020  17.7371520
  78.6335260  31.3355560  17.5239320  77.9548520  32.6107310  17.9769320
  86.0330530  29.9809050  14.5197900  85.3395690  29.9786340  13.8600180
  86.7753390  29.5568370  14.0892070  85.5980460  31.6071760  18.5946390
  86.0537410  30.8261140  18.9085010  85.9372980  32.3178580  19.1387570
  73.3483010  27.3788220  25.7537130  73.5114050  26.9093580  24.9356500
  73.8135460  26.8711780  26.4185970  78.1201780  16.5093980  20.7897700
  77.6769930  17.2903520  20.4582220  78.6786770  16.8323870  21.4968640
  82.4071590  19.3762500  26.3933020  81.9450960  19.5845520  27.2052960
  82.0049700  18.5621850  26.0903690  87.4076100  20.5971450  27.5229680
  86.5569690  20.2977200  27.8438750  87.2477890  20.8413460  26.6113500
  84.5025810  22.0973200  29.6228470  84.8279220  21.2636950  29.2830700
  85.2906140  22.6201720  29.7706800  81.2360600  16.1304680  15.6703530
  80.6114780  16.1264550  16.3956840  81.1490720  15.2635640  15.2739500
  80.1577680  17.0541310  22.6487300  80.4550010  17.9604140  22.5679320
  80.7063240  16.5660090  22.0346870  77.9116000  21.6327550  18.5178950
  77.6856920  21.4164720  19.4225570  77.1308530  22.0656010  18.1724920
  85.1413760  21.6390920  17.1169600  84.5422650  22.3626720  16.9333220
  85.6893370  21.5767700  16.3346050  80.3515210  22.5313130  29.1839220
  80.2558810  21.5907860  29.0339620  81.1947190  22.7528200  28.7887290
  83.7478630  20.2754460  19.1472880  84.1408200  20.5926660  18.3341570
  84.1095480  19.3966340  19.2617400  75.4825750  18.9426800  27.3373000
  75.0889140  19.7902010  27.5445780  74.7944150  18.3053170  27.5281640
  82.0570800  19.0261770  30.4069740  81.3669120  18.8333970  31.0415830
  82.8003100  19.3096410  30.9394040  72.7842800  16.8655260  21.3703080
  72.4955850  17.4358120  22.0828060  73.5288560  16.3859710  21.7334310
  72.9713030  20.8075380  12.5805800  72.8887700  21.7506140  12.7220790
  72.6196090  20.6650290  11.7018150  84.3333770  22.8660210  23.2423660
  83.6014890  23.3747020  23.5913760  83.9358110  22.0490190  22.9412440
  80.7711160  19.5414410  21.6476150  80.7747220  19.1004360  20.7980690
  81.6662280  19.8631740  21.7547970  76.6213540  19.4240900  20.6070360
  76.2813590  19.9016130  21.3637410  75.8590860  18.9706020  20.2471460
  80.8331310  20.5426490  14.6382910  80.9544130  20.5012970  15.5868730
  80.4479820  21.4050640  14.4829640  84.7959680  18.3193890  22.6546600
  84.8132420  18.7702540  23.4988450  84.5475260  17.4199530  22.8680040
  79.8452810  22.8527630  14.0366210  79.2769710  22.4045880  13.4102120
  80.5541810  23.2120410  13.5031360  74.9221990  26.7539650  27.9132940
  74.5376780  26.1133320  28.5115900  75.2334180  27.4575770  28.4827670
  81.0719130  23.6016190  23.3941560  81.4389260  23.1274760  24.1402900
  80.8824190  24.4757760  23.7349900  73.9359620  18.3459880  19.5235030
  73.6506540  17.9815550  20.3613650  73.8738480  17.6140340  18.9098170
  78.8618500  22.6424830  25.7125770  78.5575570  23.5216810  25.9376130
  79.8164960  22.7024620  25.7483210  77.3900290  26.8485820  16.3092620
  76.6162550  26.3083440  16.1491340  78.1194920  26.3292430  15.9710380
  83.6098210  17.2389140  16.2448400  82.7962820  16.7402310  16.1693710
  83.4160160  18.0787390  15.8284750  83.5307070  25.9160240  27.9888010
  83.4644380  24.9955910  27.7345600  82.9012210  26.0135680  28.7032650
  86.3246600  21.6108790  14.5410560  87.2126220  21.9226020  14.3661900
  86.2951690  20.7381040  14.1491140  77.4337690  26.5166200  19.9471430
  77.9516360  25.7134460  19.8928320  76.9821710  26.4545340  20.7888260
  82.3207190  27.7832480  15.2198730  82.6622890  28.5274710  14.7242050
  81.4919900  28.0963600  15.5823560  74.9182230  23.4827570  26.8597130
  74.5597170  24.1481420  27.4470470  74.6236790  22.6511120  27.2309750
  78.1195350  23.9411810  29.7436680  77.8195490  24.0868990  28.8464500
  78.8906590  23.3817100  29.6510070  83.4623800  28.7380810  27.7391810
  83.4768340  27.8061770  27.5210720  82.7548900  28.8240570  28.3781580
  85.2034600  27.1048320  20.5844240  85.5558420  26.5076450  19.9245610
  84.3196930  26.7792550  20.7552490  81.2897880  27.8646010  17.9914650
  81.9769010  28.4115220  18.3722240  80.5030300  28.4086740  18.0264260
  73.4290280  23.4818830  13.4831730  74.2985130  23.7643630  13.7667650
  72.9380600  24.2954700  13.3680540  80.5925090  24.8692040  17.6040010
  81.0487870  25.6797290  17.8300200  80.2413300  24.5515180  18.4358500
  82.8957700  30.3798380  24.8332310  83.5399920  30.5857760  25.5105730
  83.2587140  29.6186780  24.3803160  76.4936870  15.2129690  18.0762530
  76.3651500  15.2047590  19.0247450  75.6698890  15.5512780  17.7253540
  84.1689780  28.3830730  23.5509760  84.8112010  27.6823890  23.6641930
  84.6939130  29.1629170  23.3706650  85.9427400  29.1825630  26.7545820
  86.2783640  29.7692320  27.4323740  85.0227740  29.0518340  26.9843610
  73.7961530  32.6946210  14.0493360  74.1559170  33.2935550  13.3950630
  73.6553870  33.2406100  14.8228390  73.4930800  16.9720810  27.5369230
  72.7789320  17.1717730  28.1421840  73.9125840  16.1960380  27.9084030
  73.7803390  30.9601070  28.5235760  73.8894510  30.0195810  28.3831150
  73.1283950  31.2255820  27.8749490  81.7715980  29.2316960  29.9233880
  81.4512850  28.5126200  30.4679570  81.0974340  29.9072030  29.9969940
  79.8130150  30.0777410  14.8667030  79.8040250  30.8107100  14.2511540
  78.8928510  29.8308990  14.9593990  75.4136790  25.2992300  15.6113790
  74.8064740  26.0391200  15.6209090  75.8886140  25.3891660  14.7851990
  84.9869580  19.4643120  25.2870680  85.3550400  18.6438330  25.6150250
  84.1267780  19.5245010  25.7026330  82.7989750  30.1405650  13.5292220
  82.9001730  29.9369640  12.5994200  81.8991490  29.8863930  13.7340000
  80.3215640  20.6986010  17.5116120  79.6131790  21.1672350  17.9529730
  80.6060120  20.0408020  18.1461310  81.9471570  22.1182710  25.5108650
  82.4456820  22.5928530  26.1760500  82.0894520  21.1946230  25.7178680
  84.3531070  17.4236670  18.9511910  84.2298850  17.4422800  18.0021420
  85.3015630  17.4715610  19.0710310  81.4407860  32.6591970  18.2239890
  81.6949360  32.6213360  17.3019260  80.4920340  32.5325300  18.2168140
  78.5250660  19.0071090  14.8866830  79.3741190  19.4441240  14.8207020
  78.1581930  19.3191350  15.7138890  77.4242080  25.2603450  13.3602360
  78.1905350  25.1484810  13.9227790  77.5016770  24.5641420  12.7079130
  76.1188840  22.6928520  14.0435250  76.1992430  21.7456030  14.1552650
  77.0108590  23.0235400  14.1495910  76.9203550  32.8423910  21.1469790
  77.6566030  32.2939370  21.4178360  77.3044470  33.7079920  21.0075780
  73.8049030  28.9097480  17.0211300  72.8788810  29.1518620  17.0116710
  74.2705460  29.7371740  16.8996050  75.9261830  32.0269980  30.3355370
  76.7274560  32.3482030  30.7490770  75.4113650  31.6665560  31.0575280
  80.0305860  32.0154220  12.9695360  80.8234470  32.3043050  12.5177150
  79.5110210  31.5846390  12.2907840  84.7626460  28.1349850  30.2830780
  84.1564620  28.1581450  29.5426530  84.4580570  27.4032890  30.8198030
  86.1926830  31.8630140  28.8940190  87.1448580  31.7788160  28.8440430
  86.0455050  32.5271850  29.5673980  73.6459640  24.5143440  29.2791420
  74.1498660  23.9350720  29.8507650  72.9067060  24.7983670  29.8167790
  80.5483260  27.2357630  12.8337710  80.4433900  26.6209980  13.5599090
  80.3807480  26.7123520  12.0500720  80.6997580  25.9214430  28.8126940
  79.9343250  26.4899430  28.7281610  80.8813540  25.6290640  27.9195170
  83.7885990  26.2977660  13.4379700  83.2396090  26.7446960  14.0822440
  84.4105250  25.7926910  13.9617370  75.6782720  22.6573030  30.1741490
  75.7188060  22.3586900  31.0826720  76.5328220  23.0580640  30.0149010
  79.4561110  25.2568580  15.3345000  79.8777530  25.0908450  16.1776390
  79.5811950  24.4468810  14.8400140  77.6188530  21.2365130  28.1415980
  77.0884990  20.7456080  27.5139320  78.2876600  21.6649330  27.6073910
  81.9688750  24.2806190  12.5822100  82.4894410  23.5655210  12.2163250
  82.6157150  24.9192060  12.8822610  86.5166590  25.7034590  27.9057170
  86.9307610  25.8579670  28.7547590  85.5817590  25.8289810  28.0682950
  78.1060830  18.2027500  28.2213270  78.0117700  17.5848250  27.4964140
  77.5258220  18.9293790  27.9943180  80.8722270  16.7600740  25.2540660
  80.4239570  16.7825000  24.4086210  80.2387470  16.3619760  25.8510960
  81.2781820  25.6555070  25.8753100  81.6969930  26.4987800  25.7029340
  80.3590450  25.7927110  25.6459880  83.6145720  23.3871250  27.2590940
  83.7341930  22.7912390  27.9985780  84.4739720  23.4240940  26.8392240
  85.9533620  23.9408440  25.8353450  85.4268840  24.4651060  25.2318590
  86.2964960  24.5735830  26.4663180  78.3520010  21.3301810  12.2803160
  78.1509070  20.4669170  12.6416500  78.1812060  21.2435170  11.3424760
  79.1289240  31.9608080  26.9910830  78.5910330  32.6854140  26.6719530
  79.3823200  31.4838420  26.2008170  80.3814490  19.9292600  28.5166760
  80.9714180  19.6208450  29.2044580  79.5634730  19.4572350  28.6726660
  85.2007920  19.5458410  28.7499780  84.5123440  18.8839950  28.6849770
  85.9213940  19.0996680  29.1948240  85.8308320  16.1410040  14.8090040
  86.1110610  15.2977940  15.1649460  85.0574050  16.3733150  15.3228790
  77.1502810  18.4302430  12.2681040  77.4528710  18.4369860  11.3600190
  77.8897400  18.0800290  12.7648700  81.9851450  33.1959290  27.2497480
  81.9110150  34.0994430  27.5569850  81.0830290  32.8771190  27.2219550
  80.3687740  17.3737050  13.2537240  80.0209740  16.6961040  12.6739690
  80.5700510  16.9126560  14.0680630  82.5336780  32.3617800  14.8723840
  83.4287570  32.7002770  14.8942600  82.5654410  31.6397210  14.2448120
  76.1732940  27.7344850  13.1010840  76.6107810  28.2774520  13.7568420
  76.6580670  26.9091800  13.1107180  73.3878740  30.5233880  20.5531100
  73.7181750  29.6554940  20.3209740  73.8169740  30.7292400  21.3836060
  77.9840660  28.8542890  18.2133070  77.6836200  28.7307860  19.1136980
  77.8778150  27.9951480  17.8048800  73.8768950  31.3904470  23.2912730
  73.4399940  31.5705270  24.1236880  74.4446630  32.1479090  23.1494450
  73.7093380  23.9024700  19.6501610  73.0542220  23.6336340  19.0061310
  74.5471330  23.7929180  19.2003590  86.6583820  18.6965990  13.8720100
  87.0768700  18.5096970  13.0316760  86.3519880  17.8445040  14.1823030
  74.7469310  24.2877270  24.1904950  75.1142350  24.2004670  25.0700970
  74.1780130  23.5243820  24.0911810  74.2985310  21.1986360  28.0963370
  73.4041360  21.1653120  28.4357080  74.8382860  21.3973150  28.8614620
  72.9231460  21.1123630  15.5926940  72.0195540  21.3753830  15.4178600
  73.4072080  21.3834800  14.8126900  75.4658670  20.1689170  13.5021320
  76.1750370  19.7472390  13.0168600  74.7498610  20.2364400  12.8704670
  75.1132830  16.2228500  12.5423970  75.8360960  16.7637440  12.8605190
  75.3857350  15.9491920  11.6665510  74.8025020  15.4734690  22.4446590
  75.4501210  14.9232070  22.0041750  75.2226860  15.7277840  23.2662400
  74.5557020  15.6290360  25.1871910  74.2071840  16.0854180  25.9530090
  74.2244720  14.7347490  25.2694340  76.1621390  28.8009960  29.3525100
  76.1191020  28.4302870  30.2339560  76.2932400  29.7387530  29.4926920
  79.8627420  30.3569550  24.9534820  79.6218780  30.6244110  24.0665340
  80.8030060  30.5275280  25.0085680  82.0681840  16.8202240  28.7091330
  82.0070730  17.4124070  29.4586740  83.0082220  16.7128200  28.5641590
  84.7056400  16.4772300  28.3483620  85.3196810  16.7951590  27.6864700
  85.2505960  15.9920890  28.9679480  75.2277660  15.1566560  28.4622680
  75.7760650  14.9754610  27.6988790  75.2932970  14.3660670  28.9978990
  76.0009420  31.7472210  26.4722880  75.4069740  31.6156910  27.2112920
  75.9933260  30.9110350  26.0064980  85.4464440  15.0404440  24.6752910
  84.5724280  15.3739550  24.4725840  85.3375190  14.5677620  25.5004780
  86.3536420  17.2475310  26.0594630  86.0249780  16.4327070  25.6796360
  87.3018720  17.2045120  25.9360320  75.6321650  29.1130590  25.4230920
  74.9055710  28.4935880  25.3556870  75.6930800  29.5071200  24.5529000
  79.2366750  31.3275590  22.2080330  79.7531770  30.7162950  21.6828590
  79.8864130  31.8304370  22.6991340  81.9762250  32.2184080  23.0349310
  82.2640060  31.9638380  22.1582320  82.4885470  31.6661440  23.6254880
  83.1939260  15.9574280  23.6145820  82.4111050  16.4319780  23.8942580
  82.9002190  15.0529110  23.5059000  73.9151650  32.4304980  18.6327680
  73.7473690  31.7975660  19.3309570  73.0486160  32.6364380  18.2821870
  74.5379670  16.2621760  16.1359540  75.2959030  16.3750640  15.5623570
  74.0756840  17.0990960  16.0902970  81.0793480  18.3761030  19.1261850
  80.2667990  18.0017920  18.7857730  81.5835120  17.6206110  19.4283040
  85.5818460  15.0403480  20.3644920  86.1847830  15.6123690  20.8393440
  84.8411450  15.6042920  20.1418820  75.5214350  31.1238210  16.0777820
  74.9961970  31.5046240  15.3739780  75.4458930  31.7488980  16.7987530
  76.9104820  16.7885810  14.6761510  77.4397580  16.0015610  14.5469460
  77.5433140  17.4677000  14.9097040  79.1042660  16.5260950  17.7306900
  78.4745400  15.8248260  17.8977030  78.5647800  17.2865080  17.5140060
  82.0434610  33.1400180  30.4017510  82.9701920  32.9044450  30.4453470
  82.0285040  33.9672180  29.9203540  79.2298220  15.8044930  30.1659390
  78.9482490  16.3078530  29.4020210  79.6117920  15.0066680  29.8001520
  78.1207320  33.0720590  14.9527070  78.8526140  32.7879870  14.4050960
  78.3800990  32.8333870  15.8426450  77.2822110  29.1885320  14.9573400
  76.6530990  29.6570420  15.5059230  77.3969940  28.3434540  15.3919590
  85.8313680  15.2198510  30.7439860  85.7179130  15.5393120  31.6391380
  86.6483420  15.6211020  30.4477140  82.8689870  25.0170000   2.9883870
  82.0931970  24.5370440   3.2782440  83.5202800  24.3375650   2.8140030
  76.8855700  25.3289810   3.8659630  76.0540580  25.0738520   4.2656140
  77.4936680  25.4000580   4.6017550  76.8656960  29.3629900   4.0617650
  77.1685000  28.4727640   3.8827870  77.6100550  29.9200120   3.8339900
  73.2580660  22.8897350   3.5341720  73.8296770  22.1219550   3.5345360
  73.2582200  23.1886110   2.6248330  82.3098860  27.6927190   2.9954030
  82.2407140  26.7517130   2.8343160  83.0718720  27.7828600   3.5676600
  74.5005530  18.2981710   5.3210650  74.3208370  17.4007460   5.6013410
  74.0985610  18.8453580   5.9957600  83.3404030  20.4997570   3.2222960
  83.7168850  19.6269450   3.1096630  83.2423540  20.8356270   2.3313400
  75.1192200  20.7942210   3.9292990  75.8002310  21.0580580   4.5480390
  74.8040250  19.9543080   4.2631000  79.3116770  21.8409570   3.0165580
  79.8194990  22.3390540   3.6570600  79.8430010  21.0644770   2.8404940
  77.5952870  16.4808130   7.2829000  77.5971310  16.9980520   6.4774900
  76.7657180  16.0038310   7.2598930  78.8455720  26.1203310   5.4602500
  78.5125100  26.7472230   6.1023570  79.0222400  26.6465190   4.6804170
  77.2768200  18.1918090   5.2899450  77.6185010  19.0360140   4.9953320
  76.3384010  18.3401830   5.4064790  78.0574820  28.0884110   7.2751680
  78.6748820  28.7635190   6.9936130  77.1967940  28.4972090   7.1839180
  86.5111150  31.3967650   3.9051500  86.5238310  30.9929940   3.0373760
  85.9586370  32.1714940   3.8012930  85.9096590  26.2997490   5.2334110
  86.3265380  26.0857600   4.3987570  86.6336410  26.5570280   5.8042730
  86.8200700  21.4854030   6.2705220  86.4071880  22.3107740   6.5245210
  86.0876650  20.8999070   6.0781580  79.4215190  27.9581490   3.2963100
  79.1243480  27.3526960   2.6170880  80.3715010  27.9958800   3.1852460
  77.6662110  21.0457140   4.9122930  78.2176700  21.1552480   4.1376180
  78.1805620  21.4194740   5.6278160  78.5133620  27.6963180   9.9470900
  77.6162150  27.9203150  10.1944300  78.5386490  27.8198120   8.9982300
  77.3404840  24.5676500   8.5228270  77.2012610  25.4399300   8.8915670
  76.4586200  24.2249310   8.3776210  79.1385190  30.5098200  10.7313420
  79.1100620  30.9141150   9.8641850  78.9750160  29.5808560  10.5685020
  73.2923490  26.3374050   4.4399180  73.3703910  26.4722820   3.4954900
  73.9065170  25.6289940   4.6327300  84.3550000  32.1866150   7.7572410
  84.8694670  32.0974160   8.5594840  83.5119080  32.5325850   8.0500320
  73.3483010  27.3788220   6.9793640  73.5114050  26.9093580   6.1613010
  73.8135460  26.8711780   7.6442480  78.1201780  16.5093980   2.0154210
  77.6769930  17.2903520   1.6838730  78.6786770  16.8323870   2.7225150
  82.4071590  19.3762500   7.6189530  81.9450960  19.5845520   8.4309470
  82.0049700  18.5621850   7.3160200  87.4076100  20.5971450   8.7486190
  86.5569690  20.2977200   9.0695260  87.2477890  20.8413460   7.8370010
  84.5025810  22.0973200  10.8484980  84.8279220  21.2636950  10.5087210
  85.2906140  22.6201720  10.9963310  80.1577680  17.0541310   3.8743810
  80.4550010  17.9604140   3.7935830  80.7063240  16.5660090   3.2603380
  80.3515210  22.5313130  10.4095730  80.2558810  21.5907860  10.2596130
  81.1947190  22.7528200  10.0143800  75.4825750  18.9426800   8.5629510
  75.0889140  19.7902010   8.7702290  74.7944150  18.3053170   8.7538150
  82.0570800  19.0261770  11.6326250  81.3669120  18.8333970  12.2672340
  82.8003100  19.3096410  12.1650550  72.7842800  16.8655260   2.5959590
  72.4955850  17.4358120   3.3084570  73.5288560  16.3859710   2.9590820
  84.3333770  22.8660210   4.4680170  83.6014890  23.3747020   4.8170270
  83.9358110  22.0490190   4.1668950  80.7711160  19.5414410   2.8732660
  80.7747220  19.1004360   2.0237200  81.6662280  19.8631740   2.9804480
  84.7959680  18.3193890   3.8803110  84.8132420  18.7702540   4.7244960
  84.5475260  17.4199530   4.0936550  74.9221990  26.7539650   9.1389450
  74.5376780  26.1133320   9.7372410  75.2334180  27.4575770   9.7084180
  81.0719130  23.6016190   4.6198070  81.4389260  23.1274760   5.3659410
  80.8824190  24.4757760   4.9606410  78.8618500  22.6424830   6.9382280
  78.5575570  23.5216810   7.1632640  79.8164960  22.7024620   6.9739720
  83.5307070  25.9160240   9.2144520  83.4644380  24.9955910   8.9602110
  82.9012210  26.0135680   9.9289160  74.9182230  23.4827570   8.0853640
  74.5597170  24.1481420   8.6726980  74.6236790  22.6511120   8.4566260
  78.1195350  23.9411810  10.9693190  77.8195490  24.0868990  10.0721010
  78.8906590  23.3817100  10.8766580  83.4623800  28.7380810   8.9648320
  83.4768340  27.8061770   8.7467230  82.7548900  28.8240570   9.6038090
  82.8957700  30.3798380   6.0588820  83.5399920  30.5857760   6.7362240
  83.2587140  29.6186780   5.6059670  84.1689780  28.3830730   4.7766270
  84.8112010  27.6823890   4.8898440  84.6939130  29.1629170   4.5963160
  85.9427400  29.1825630   7.9802330  86.2783640  29.7692320   8.6580250
  85.0227740  29.0518340   8.2100120  73.4930800  16.9720810   8.7625740
  72.7789320  17.1717730   9.3678350  73.9125840  16.1960380   9.1340540
  73.7803390  30.9601070   9.7492270  73.8894510  30.0195810   9.6087660
  73.1283950  31.2255820   9.1006000  81.7715980  29.2316960  11.1490390
  81.4512850  28.5126200  11.6936080  81.0974340  29.9072030  11.2226450
  84.9869580  19.4643120   6.5127190  85.3550400  18.6438330   6.8406760
  84.1267780  19.5245010   6.9282840  81.9471570  22.1182710   6.7365160
  82.4456820  22.5928530   7.4017010  82.0894520  21.1946230   6.9435190
  76.9203550  32.8423910   2.3726300  77.6566030  32.2939370   2.6434870
  77.3044470  33.7079920   2.2332290  75.9261830  32.0269980  11.5611880
  76.7274560  32.3482030  11.9747280  75.4113650  31.6665560  12.2831790
  84.7626460  28.1349850  11.5087290  84.1564620  28.1581450  10.7683040
  84.4580570  27.4032890  12.0454540  86.1926830  31.8630140  10.1196700
  87.1448580  31.7788160  10.0696940  86.0455050  32.5271850  10.7930490
  73.6459640  24.5143440  10.5047930  74.1498660  23.9350720  11.0764160
  72.9067060  24.7983670  11.0424300  80.6997580  25.9214430  10.0383450
  79.9343250  26.4899430   9.9538120  80.8813540  25.6290640   9.1451680
  75.6782720  22.6573030  11.3998000  75.7188060  22.3586900  12.3083230
  76.5328220  23.0580640  11.2405520  77.6188530  21.2365130   9.3672490
  77.0884990  20.7456080   8.7395830  78.2876600  21.6649330   8.8330420
  86.5166590  25.7034590   9.1313680  86.9307610  25.8579670   9.9804100
  85.5817590  25.8289810   9.2939460  78.1060830  18.2027500   9.4469780
  78.0117700  17.5848250   8.7220650  77.5258220  18.9293790   9.2199690
  80.8722270  16.7600740   6.4797170  80.4239570  16.7825000   5.6342720
  80.2387470  16.3619760   7.0767470  81.2781820  25.6555070   7.1009610
  81.6969930  26.4987800   6.9285850  80.3590450  25.7927110   6.8716390
  83.6145720  23.3871250   8.4847450  83.7341930  22.7912390   9.2242290
  84.4739720  23.4240940   8.0648750  85.9533620  23.9408440   7.0609960
  85.4268840  24.4651060   6.4575100  86.2964960  24.5735830   7.6919690
  79.1289240  31.9608080   8.2167340  78.5910330  32.6854140   7.8976040
  79.3823200  31.4838420   7.4264680  80.3814490  19.9292600   9.7423270
  80.9714180  19.6208450  10.4301090  79.5634730  19.4572350   9.8983170
  85.2007920  19.5458410   9.9756290  84.5123440  18.8839950   9.9106280
  85.9213940  19.0996680  10.4204750  81.9851450  33.1959290   8.4753990
  81.9110150  34.0994430   8.7826360  81.0830290  32.8771190   8.4476060
  73.8768950  31.3904470   4.5169240  73.4399940  31.5705270   5.3493390
  74.4446630  32.1479090   4.3750960  74.7469310  24.2877270   5.4161460
  75.1142350  24.2004670   6.2957480  74.1780130  23.5243820   5.3168320
  74.2985310  21.1986360   9.3219880  73.4041360  21.1653120   9.6613590
  74.8382860  21.3973150  10.0871130  74.8025020  15.4734690   3.6703100
  75.4501210  14.9232070   3.2298260  75.2226860  15.7277840   4.4918910
  74.5557020  15.6290360   6.4128420  74.2071840  16.0854180   7.1786600
  74.2244720  14.7347490   6.4950850  76.1621390  28.8009960  10.5781610
  76.1191020  28.4302870  11.4596070  76.2932400  29.7387530  10.7183430
  79.8627420  30.3569550   6.1791330  79.6218780  30.6244110   5.2921850
  80.8030060  30.5275280   6.2342190  82.0681840  16.8202240   9.9347840
  82.0070730  17.4124070  10.6843250  83.0082220  16.7128200   9.7898100
  84.7056400  16.4772300   9.5740130  85.3196810  16.7951590   8.9121210
  85.2505960  15.9920890  10.1935990  75.2277660  15.1566560   9.6879190
  75.7760650  14.9754610   8.9245300  75.2932970  14.3660670  10.2235500
  76.0009420  31.7472210   7.6979390  75.4069740  31.6156910   8.4369430
  75.9933260  30.9110350   7.2321490  85.4464440  15.0404440   5.9009420
  84.5724280  15.3739550   5.6982350  85.3375190  14.5677620   6.7261290
  86.3536420  17.2475310   7.2851140  86.0249780  16.4327070   6.9052870
  87.3018720  17.2045120   7.1616830  75.6321650  29.1130590   6.6487430
  74.9055710  28.4935880   6.5813380  75.6930800  29.5071200   5.7785510
  79.2366750  31.3275590   3.4336840  79.7531770  30.7162950   2.9085100
  79.8864130  31.8304370   3.9247850  81.9762250  32.2184080   4.2605820
  82.2640060  31.9638380   3.3838830  82.4885470  31.6661440   4.8511390
  83.1939260  15.9574280   4.8402330  82.4111050  16.4319780   5.1199090
  82.9002190  15.0529110   4.7315510  82.0434610  33.1400180  11.6274020
  82.9701920  32.9044450  11.6709980  82.0285040  33.9672180  11.1460050
  79.2298220  15.8044930  11.3915900  78.9482490  16.3078530  10.6276720
  79.6117920  15.0066680  11.0258030  85.8313680  15.2198510  11.9696370
  85.7179130  15.5393120  12.8647890  86.6483420  15.6211020  11.6733650
  84.7371830   4.4647490  76.2048560  84.6565880   3.5502100  75.9340270
  84.3236250   4.9614560  75.4988270  82.8689870   6.2426510  78.0857830
  82.0931970   5.7626950  78.3756400  83.5202800   5.5632160  77.9113990
  73.2580660   4.1153860  78.6315680  73.8296770   3.3476060  78.6319320
  73.2582200   4.4142620  77.7222290  83.1160610  12.9344710  76.4860950
  82.4972050  13.3902210  75.9155390  83.9712390  13.0896170  76.0850650
  82.3098860   8.9183700  78.0927990  82.2407140   7.9773640  77.9317120
  83.0718720   9.0085110  78.6650560  79.3116770   3.0666080  78.1139540
  79.8194990   3.5647050  78.7544560  79.8430010   2.2901280  77.9378900
  83.9823960   7.8183950  73.8792860  83.3641230   8.2833400  73.3155580
  84.4947210   8.5111430  74.2962370  73.3507160   8.5040480  71.2532490
  72.9735140   8.9927580  70.5217390  73.6080230   9.1765760  71.8839020
  83.3476850   4.9705700  73.4478120  82.4206130   4.9043080  73.6766590
  83.5001670   5.9085830  73.3333360  87.3774140   6.5326000  73.9513370
  86.7586560   6.1945550  73.3039670  87.3598590   5.8885760  74.6592560
  78.9533490   5.4970440  76.2297850  78.5490490   4.7847690  75.7343750
  79.0396610   5.1523680  77.1185890  79.4215190   9.1838000  78.3937060
  79.1243480   8.5783470  77.7144840  80.3715010   9.2215310  78.2826420
  85.5538840   5.7712810  70.9586120  85.9932120   4.9335240  70.8123940
  86.2667260   6.4042210  71.0450260  83.6634220  10.7108880  74.9267360
  84.1030130  11.4533210  74.5122750  83.6021110  10.9535450  75.8506320
  75.6538120   4.3915420  73.7304500  75.5335720   5.1177510  73.1185770
  75.3439010   3.6218330  73.2532410  74.5371120   9.2630750  75.9479320
  74.1299200   9.4045340  75.0932920  75.4284130   8.9790910  75.7450530
  86.3304400  13.6978000  72.2830370  86.1705540  13.4080940  73.1812200
  86.1651110  12.9218130  71.7475600  78.8092780  13.4776530  74.0601990
  78.6335260  12.5612070  73.8469790  77.9548520  13.8363820  74.2999790
  86.0330530  11.2065560  70.8428370  85.3395690  11.2042850  70.1830650
  86.7753390  10.7824880  70.4122540  85.5980460  12.8328270  74.9176860
  86.0537410  12.0517650  75.2315480  85.9372980  13.5435090  75.4618040
  77.9116000   2.8584060  74.8409420  77.6856920   2.6421230  75.7456040
  77.1308530   3.2912520  74.4955390  85.1413760   2.8647430  73.4400070
  84.5422650   3.5883230  73.2563690  85.6893370   2.8024210  72.6576520
  72.9713030   2.0331890  68.9036270  72.8887700   2.9762650  69.0451260
  72.6196090   1.8906800  68.0248620  80.8331310   1.7683000  70.9613380
  80.9544130   1.7269480  71.9099200  80.4479820   2.6307150  70.8060110
  79.8452810   4.0784140  70.3596680  79.2769710   3.6302390  69.7332590
  80.5541810   4.4376920  69.8261830  77.3900290   8.0742330  72.6323090
  76.6162550   7.5339950  72.4721810  78.1194920   7.5548940  72.2940850
  86.3246600   2.8365300  70.8641030  87.2126220   3.1482530  70.6892370
  86.2951690   1.9637550  70.4721610  77.4337690   7.7422710  76.2701900
  77.9516360   6.9390970  76.2158790  76.9821710   7.6801850  77.1118730
  82.3207190   9.0088990  71.5429200  82.6622890   9.7531220  71.0472520
  81.4919900   9.3220110  71.9054030  85.2034600   8.3304830  76.9074710
  85.5558420   7.7332960  76.2476080  84.3196930   8.0049060  77.0782960
  81.2897880   9.0902520  74.3145120  81.9769010   9.6371730  74.6952710
  80.5030300   9.6343250  74.3494730  73.4290280   4.7075340  69.8062200
  74.2985130   4.9900140  70.0898120  72.9380600   5.5211210  69.6911010
  80.5925090   6.0948550  73.9270480  81.0487870   6.9053800  74.1530670
  80.2413300   5.7771690  74.7588970  73.7961530  13.9202720  70.3723830
  74.1559170  14.5192060  69.7181100  73.6553870  14.4662610  71.1458860
  79.8130150  11.3033920  71.1897500  79.8040250  12.0363610  70.5742010
  78.8928510  11.0565500  71.2824460  75.4136790   6.5248810  71.9344260
  74.8064740   7.2647710  71.9439560  75.8886140   6.6148170  71.1082460
  82.7989750  11.3662160  69.8522690  82.9001730  11.1626150  68.9224670
  81.8991490  11.1120440  70.0570470  81.4407860  13.8848480  74.5470360
  81.6949360  13.8469870  73.6249730  80.4920340  13.7581810  74.5398610
  77.4242080   6.4859960  69.6832830  78.1905350   6.3741320  70.2458260
  77.5016770   5.7897930  69.0309600  76.1188840   3.9185030  70.3665720
  76.1992430   2.9712540  70.4783120  77.0108590   4.2491910  70.4726380
  76.9203550  14.0680420  77.4700260  77.6566030  13.5195880  77.7408830
  77.3044470  14.9336430  77.3306250  73.8049030  10.1353990  73.3441770
  72.8788810  10.3775130  73.3347180  74.2705460  10.9628250  73.2226520
  80.0305860  13.2410730  69.2925830  80.8234470  13.5299560  68.8407620
  79.5110210  12.8102900  68.6138310  80.5483260   8.4614140  69.1568180
  80.4433900   7.8466490  69.8829560  80.3807480   7.9380030  68.3731190
  83.7885990   7.5234170  69.7610170  83.2396090   7.9703470  70.4052910
  84.4105250   7.0183420  70.2847840  79.4561110   6.4825090  71.6575470
  79.8777530   6.3164960  72.5006860  79.5811950   5.6725320  71.1630610
  81.9688750   5.5062700  68.9052570  82.4894410   4.7911720  68.5393720
  82.6157150   6.1448570  69.2053080  78.3520010   2.5558320  68.6033630
  78.1509070   1.6925680  68.9646970  78.1812060   2.4691680  67.6655230
  82.5336780  13.5874310  71.1954310  83.4287570  13.9259280  71.2173070
  82.5654410  12.8653720  70.5678590  76.1732940   8.9601360  69.4241310
  76.6107810   9.5031030  70.0798890  76.6580670   8.1348310  69.4337650
  73.3878740  11.7490390  76.8761570  73.7181750  10.8811450  76.6440210
  73.8169740  11.9548910  77.7066530  77.9840660  10.0799400  74.5363540
  77.6836200   9.9564370  75.4367450  77.8778150   9.2207990  74.1279270
  73.7093380   5.1281210  75.9732080  73.0542220   4.8592850  75.3291780
  74.5471330   5.0185690  75.5234060  72.9231460   2.3380140  71.9157410
  72.0195540   2.6010340  71.7409070  73.4072080   2.6091310  71.1357370
  73.9151650  13.6561490  74.9558150  73.7473690  13.0232170  75.6540040
  73.0486160  13.8620890  74.6052340  75.5214350  12.3494720  72.4008290
  74.9961970  12.7302750  71.6970250  75.4458930  12.9745490  73.1218000
  78.1207320  14.2977100  71.2757540  78.8526140  14.0136380  70.7281430
  78.3800990  14.0590380  72.1656920  77.2822110  10.4141830  71.2803870
  76.6530990  10.8826930  71.8289700  77.3969940   9.5691050  71.7150060
  84.7371830   4.4647490  57.4305070  84.6565880   3.5502100  57.1596780
  84.3236250   4.9614560  56.7244780  82.8689870   6.2426510  59.3114340
  82.0931970   5.7626950  59.6012910  83.5202800   5.5632160  59.1370500
  76.8855700   6.5546320  60.1890100  76.0540580   6.2995030  60.5886610
  77.4936680   6.6257090  60.9248020  76.8656960  10.5886410  60.3848120
  77.1685000   9.6984150  60.2058340  77.6100550  11.1456630  60.1570370
  73.2580660   4.1153860  59.8572190  73.8296770   3.3476060  59.8575830
  73.2582200   4.4142620  58.9478800  83.1160610  12.9344710  57.7117460
  82.4972050  13.3902210  57.1411900  83.9712390  13.0896170  57.3107160
  82.3098860   8.9183700  59.3184500  82.2407140   7.9773640  59.1573630
  83.0718720   9.0085110  59.8907070  79.3116770   3.0666080  59.3396050
  79.8194990   3.5647050  59.9801070  79.8430010   2.2901280  59.1635410
  83.9823960   7.8183950  55.1049370  83.3641230   8.2833400  54.5412090
  84.4947210   8.5111430  55.5218880  78.8455720   7.3459820  61.7832970
  78.5125100   7.9728740  62.4254040  79.0222400   7.8721700  61.0034640
  78.0574820   9.3140620  63.5982150  78.6748820   9.9891700  63.3166600
  77.1967940   9.7228600  63.5069650  73.3507160   8.5040480  52.4789000
  72.9735140   8.9927580  51.7473900  73.6080230   9.1765760  53.1095530
  86.5111150  12.6224160  60.2281970  86.5238310  12.2186450  59.3604230
  85.9586370  13.3971450  60.1243400  85.9096590   7.5254000  61.5564580
  86.3265380   7.3114110  60.7218040  86.6336410   7.7826790  62.1273200
  83.3476850   4.9705700  54.6734630  82.4206130   4.9043080  54.9023100
  83.5001670   5.9085830  54.5589870  87.3774140   6.5326000  55.1769880
  86.7586560   6.1945550  54.5296180  87.3598590   5.8885760  55.8849070
  86.8200700   2.7110540  62.5935690  86.4071880   3.5364250  62.8475680
  86.0876650   2.1255580  62.4012050  78.9533490   5.4970440  57.4554360
  78.5490490   4.7847690  56.9600260  79.0396610   5.1523680  58.3442400
  79.4215190   9.1838000  59.6193570  79.1243480   8.5783470  58.9401350
  80.3715010   9.2215310  59.5082930  77.6662110   2.2713650  61.2353400
  78.2176700   2.3808990  60.4606650  78.1805620   2.6451250  61.9508630
  78.5133620   8.9219690  66.2701370  77.6162150   9.1459660  66.5174770
  78.5386490   9.0454630  65.3212770  85.5538840   5.7712810  52.1842630
  85.9932120   4.9335240  52.0380450  86.2667260   6.4042210  52.2706770
  77.3404840   5.7933010  64.8458740  77.2012610   6.6655810  65.2146140
  76.4586200   5.4505820  64.7006680  83.6634220  10.7108880  56.1523870
  84.1030130  11.4533210  55.7379260  83.6021110  10.9535450  57.0762830
  79.1385190  11.7354710  67.0543890  79.1100620  12.1397660  66.1872320
  78.9750160  10.8065070  66.8915490  75.6538120   4.3915420  54.9561010
  75.5335720   5.1177510  54.3442280  75.3439010   3.6218330  54.4788920
  73.2923490   7.5630560  60.7629650  73.3703910   7.6979330  59.8185370
  73.9065170   6.8546450  60.9557770  74.5371120   9.2630750  57.1735830
  74.1299200   9.4045340  56.3189430  75.4284130   8.9790910  56.9707040
  84.3550000  13.4122660  64.0802880  84.8694670  13.3230670  64.8825310
  83.5119080  13.7582360  64.3730790  86.3304400  13.6978000  53.5086880
  86.1705540  13.4080940  54.4068710  86.1651110  12.9218130  52.9732110
  78.8092780  13.4776530  55.2858500  78.6335260  12.5612070  55.0726300
  77.9548520  13.8363820  55.5256300  86.0330530  11.2065560  52.0684880
  85.3395690  11.2042850  51.4087160  86.7753390  10.7824880  51.6379050
  85.5980460  12.8328270  56.1433370  86.0537410  12.0517650  56.4571990
  85.9372980  13.5435090  56.6874550  73.3483010   8.6044730  63.3024110
  73.5114050   8.1350090  62.4843480  73.8135460   8.0968290  63.9672950
  87.4076100   1.8227960  65.0716660  86.5569690   1.5233710  65.3925730
  87.2477890   2.0669970  64.1600480  84.5025810   3.3229710  67.1715450
  84.8279220   2.4893460  66.8317680  85.2906140   3.8458230  67.3193780
  77.9116000   2.8584060  56.0665930  77.6856920   2.6421230  56.9712550
  77.1308530   3.2912520  55.7211900  85.1413760   2.8647430  54.6656580
  84.5422650   3.5883230  54.4820200  85.6893370   2.8024210  53.8833030
  80.3515210   3.7569640  66.7326200  80.2558810   2.8164370  66.5826600
  81.1947190   3.9784710  66.3374270  72.9713030   2.0331890  50.1292780
  72.8887700   2.9762650  50.2707770  72.6196090   1.8906800  49.2505130
  84.3333770   4.0916720  60.7910640  83.6014890   4.6003530  61.1400740
  83.9358110   3.2746700  60.4899420  80.8331310   1.7683000  52.1869890
  80.9544130   1.7269480  53.1355710  80.4479820   2.6307150  52.0316620
  79.8452810   4.0784140  51.5853190  79.2769710   3.6302390  50.9589100
  80.5541810   4.4376920  51.0518340  74.9221990   7.9796160  65.4619920
  74.5376780   7.3389830  66.0602880  75.2334180   8.6832280  66.0314650
  81.0719130   4.8272700  60.9428540  81.4389260   4.3531270  61.6889880
  80.8824190   5.7014270  61.2836880  78.8618500   3.8681340  63.2612750
  78.5575570   4.7473320  63.4863110  79.8164960   3.9281130  63.2970190
  77.3900290   8.0742330  53.8579600  76.6162550   7.5339950  53.6978320
  78.1194920   7.5548940  53.5197360  83.5307070   7.1416750  65.5374990
  83.4644380   6.2212420  65.2832580  82.9012210   7.2392190  66.2519630
  86.3246600   2.8365300  52.0897540  87.2126220   3.1482530  51.9148880
  86.2951690   1.9637550  51.6978120  77.4337690   7.7422710  57.4958410
  77.9516360   6.9390970  57.4415300  76.9821710   7.6801850  58.3375240
  82.3207190   9.0088990  52.7685710  82.6622890   9.7531220  52.2729030
  81.4919900   9.3220110  53.1310540  74.9182230   4.7084080  64.4084110
  74.5597170   5.3737930  64.9957450  74.6236790   3.8767630  64.7796730
  78.1195350   5.1668320  67.2923660  77.8195490   5.3125500  66.3951480
  78.8906590   4.6073610  67.1997050  83.4623800   9.9637320  65.2878790
  83.4768340   9.0318280  65.0697700  82.7548900  10.0497080  65.9268560
  85.2034600   8.3304830  58.1331220  85.5558420   7.7332960  57.4732590
  84.3196930   8.0049060  58.3039470  81.2897880   9.0902520  55.5401630
  81.9769010   9.6371730  55.9209220  80.5030300   9.6343250  55.5751240
  73.4290280   4.7075340  51.0318710  74.2985130   4.9900140  51.3154630
  72.9380600   5.5211210  50.9167520  80.5925090   6.0948550  55.1526990
  81.0487870   6.9053800  55.3787180  80.2413300   5.7771690  55.9845480
  82.8957700  11.6054890  62.3819290  83.5399920  11.8114270  63.0592710
  83.2587140  10.8443290  61.9290140  84.1689780   9.6087240  61.0996740
  84.8112010   8.9080400  61.2128910  84.6939130  10.3885680  60.9193630
  85.9427400  10.4082140  64.3032800  86.2783640  10.9948830  64.9810720
  85.0227740  10.2774850  64.5330590  73.7961530  13.9202720  51.5980340
  74.1559170  14.5192060  50.9437610  73.6553870  14.4662610  52.3715370
  73.7803390  12.1857580  66.0722740  73.8894510  11.2452320  65.9318130
  73.1283950  12.4512330  65.4236470  81.7715980  10.4573470  67.4720860
  81.4512850   9.7382710  68.0166550  81.0974340  11.1328540  67.5456920
  79.8130150  11.3033920  52.4154010  79.8040250  12.0363610  51.7998520
  78.8928510  11.0565500  52.5080970  75.4136790   6.5248810  53.1600770
  74.8064740   7.2647710  53.1696070  75.8886140   6.6148170  52.3338970
  82.7989750  11.3662160  51.0779200  82.9001730  11.1626150  50.1481180
  81.8991490  11.1120440  51.2826980  81.9471570   3.3439220  63.0595630
  82.4456820   3.8185040  63.7247480  82.0894520   2.4202740  63.2665660
  81.4407860  13.8848480  55.7726870  81.6949360  13.8469870  54.8506240
  80.4920340  13.7581810  55.7655120  77.4242080   6.4859960  50.9089340
  78.1905350   6.3741320  51.4714770  77.5016770   5.7897930  50.2566110
  76.1188840   3.9185030  51.5922230  76.1992430   2.9712540  51.7039630
  77.0108590   4.2491910  51.6982890  76.9203550  14.0680420  58.6956770
  77.6566030  13.5195880  58.9665340  77.3044470  14.9336430  58.5562760
  73.8049030  10.1353990  54.5698280  72.8788810  10.3775130  54.5603690
  74.2705460  10.9628250  54.4483030  75.9261830  13.2526490  67.8842350
  76.7274560  13.5738540  68.2977750  75.4113650  12.8922070  68.6062260
  80.0305860  13.2410730  50.5182340  80.8234470  13.5299560  50.0664130
  79.5110210  12.8102900  49.8394820  84.7626460   9.3606360  67.8317760
  84.1564620   9.3837960  67.0913510  84.4580570   8.6289400  68.3685010
  86.1926830  13.0886650  66.4427170  87.1448580  13.0044670  66.3927410
  86.0455050  13.7528360  67.1160960  73.6459640   5.7399950  66.8278400
  74.1498660   5.1607230  67.3994630  72.9067060   6.0240180  67.3654770
  80.5483260   8.4614140  50.3824690  80.4433900   7.8466490  51.1086070
  80.3807480   7.9380030  49.5987700  80.6997580   7.1470940  66.3613920
  79.9343250   7.7155940  66.2768590  80.8813540   6.8547150  65.4682150
  83.7885990   7.5234170  50.9866680  83.2396090   7.9703470  51.6309420
  84.4105250   7.0183420  51.5104350  75.6782720   3.8829540  67.7228470
  75.7188060   3.5843410  68.6313700  76.5328220   4.2837150  67.5635990
  79.4561110   6.4825090  52.8831980  79.8777530   6.3164960  53.7263370
  79.5811950   5.6725320  52.3887120  77.6188530   2.4621640  65.6902960
  77.0884990   1.9712590  65.0626300  78.2876600   2.8905840  65.1560890
  81.9688750   5.5062700  50.1309080  82.4894410   4.7911720  49.7650230
  82.6157150   6.1448570  50.4309590  86.5166590   6.9291100  65.4544150
  86.9307610   7.0836180  66.3034570  85.5817590   7.0546320  65.6169930
  81.2781820   6.8811580  63.4240080  81.6969930   7.7244310  63.2516320
  80.3590450   7.0183620  63.1946860  83.6145720   4.6127760  64.8077920
  83.7341930   4.0168900  65.5472760  84.4739720   4.6497450  64.3879220
  85.9533620   5.1664950  63.3840430  85.4268840   5.6907570  62.7805570
  86.2964960   5.7992340  64.0150160  78.3520010   2.5558320  49.8290140
  78.1509070   1.6925680  50.1903480  78.1812060   2.4691680  48.8911740
  79.1289240  13.1864590  64.5397810  78.5910330  13.9110650  64.2206510
  79.3823200  12.7094930  63.7495150  81.9851450  14.4215800  64.7984460
  81.9110150  15.3250940  65.1056830  81.0830290  14.1027700  64.7706530
  82.5336780  13.5874310  52.4210820  83.4287570  13.9259280  52.4429580
  82.5654410  12.8653720  51.7935100  76.1732940   8.9601360  50.6497820
  76.6107810   9.5031030  51.3055400  76.6580670   8.1348310  50.6594160
  73.3878740  11.7490390  58.1018080  73.7181750  10.8811450  57.8696720
  73.8169740  11.9548910  58.9323040  77.9840660  10.0799400  55.7620050
  77.6836200   9.9564370  56.6623960  77.8778150   9.2207990  55.3535780
  73.8768950  12.6160980  60.8399710  73.4399940  12.7961780  61.6723860
  74.4446630  13.3735600  60.6981430  73.7093380   5.1281210  57.1988590
  73.0542220   4.8592850  56.5548290  74.5471330   5.0185690  56.7490570
  74.7469310   5.5133780  61.7391930  75.1142350   5.4261180  62.6187950
  74.1780130   4.7500330  61.6398790  74.2985310   2.4242870  65.6450350
  73.4041360   2.3909630  65.9844060  74.8382860   2.6229660  66.4101600
  72.9231460   2.3380140  53.1413920  72.0195540   2.6010340  52.9665580
  73.4072080   2.6091310  52.3613880  76.1621390  10.0266470  66.9012080
  76.1191020   9.6559380  67.7826540  76.2932400  10.9644040  67.0413900
  79.8627420  11.5826060  62.5021800  79.6218780  11.8500620  61.6152320
  80.8030060  11.7531790  62.5572660  76.0009420  12.9728720  64.0209860
  75.4069740  12.8413420  64.7599900  75.9933260  12.1366860  63.5551960
  75.6321650  10.3387100  62.9717900  74.9055710   9.7192390  62.9043850
  75.6930800  10.7327710  62.1015980  79.2366750  12.5532100  59.7567310
  79.7531770  11.9419460  59.2315570  79.8864130  13.0560880  60.2478320
  81.9762250  13.4440590  60.5836290  82.2640060  13.1894890  59.7069300
  82.4885470  12.8917950  61.1741860  73.9151650  13.6561490  56.1814660
  73.7473690  13.0232170  56.8796550  73.0486160  13.8620890  55.8308850
  75.5214350  12.3494720  53.6264800  74.9961970  12.7302750  52.9226760
  75.4458930  12.9745490  54.3474510  82.0434610  14.3656690  67.9504490
  82.9701920  14.1300960  67.9940450  82.0285040  15.1928690  67.4690520
  78.1207320  14.2977100  52.5014050  78.8526140  14.0136380  51.9537940
  78.3800990  14.0590380  53.3913430  77.2822110  10.4141830  52.5060380
  76.6530990  10.8826930  53.0546210  77.3969940   9.5691050  52.9406570
  84.7371830   4.4647490  38.6561580  84.6565880   3.5502100  38.3853290
  84.3236250   4.9614560  37.9501290  82.8689870   6.2426510  40.5370850
  82.0931970   5.7626950  40.8269420  83.5202800   5.5632160  40.3627010
  76.8855700   6.5546320  41.4146610  76.0540580   6.2995030  41.8143120
  77.4936680   6.6257090  42.1504530  76.8656960  10.5886410  41.6104630
  77.1685000   9.6984150  41.4314850  77.6100550  11.1456630  41.3826880
  73.2580660   4.1153860  41.0828700  73.8296770   3.3476060  41.0832340
  73.2582200   4.4142620  40.1735310  83.1160610  12.9344710  38.9373970
  82.4972050  13.3902210  38.3668410  83.9712390  13.0896170  38.5363670
  82.3098860   8.9183700  40.5441010  82.2407140   7.9773640  40.3830140
  83.0718720   9.0085110  41.1163580  79.3116770   3.0666080  40.5652560
  79.8194990   3.5647050  41.2057580  79.8430010   2.2901280  40.3891920
  83.9823960   7.8183950  36.3305880  83.3641230   8.2833400  35.7668600
  84.4947210   8.5111430  36.7475390  78.8455720   7.3459820  43.0089480
  78.5125100   7.9728740  43.6510550  79.0222400   7.8721700  42.2291150
  78.0574820   9.3140620  44.8238660  78.6748820   9.9891700  44.5423110
  77.1967940   9.7228600  44.7326160  73.3507160   8.5040480  33.7045510
  72.9735140   8.9927580  32.9730410  73.6080230   9.1765760  34.3352040
  86.5111150  12.6224160  41.4538480  86.5238310  12.2186450  40.5860740
  85.9586370  13.3971450  41.3499910  85.9096590   7.5254000  42.7821090
  86.3265380   7.3114110  41.9474550  86.6336410   7.7826790  43.3529710
  83.3476850   4.9705700  35.8991140  82.4206130   4.9043080  36.1279610
  83.5001670   5.9085830  35.7846380  87.3774140   6.5326000  36.4026390
  86.7586560   6.1945550  35.7552690  87.3598590   5.8885760  37.1105580
  86.8200700   2.7110540  43.8192200  86.4071880   3.5364250  44.0732190
  86.0876650   2.1255580  43.6268560  78.9533490   5.4970440  38.6810870
  78.5490490   4.7847690  38.1856770  79.0396610   5.1523680  39.5698910
  79.4215190   9.1838000  40.8450080  79.1243480   8.5783470  40.1657860
  80.3715010   9.2215310  40.7339440  77.6662110   2.2713650  42.4609910
  78.2176700   2.3808990  41.6863160  78.1805620   2.6451250  43.1765140
  78.5133620   8.9219690  47.4957880  77.6162150   9.1459660  47.7431280
  78.5386490   9.0454630  46.5469280  85.5538840   5.7712810  33.4099140
  85.9932120   4.9335240  33.2636960  86.2667260   6.4042210  33.4963280
  77.3404840   5.7933010  46.0715250  77.2012610   6.6655810  46.4402650
  76.4586200   5.4505820  45.9263190  83.6634220  10.7108880  37.3780380
  84.1030130  11.4533210  36.9635770  83.6021110  10.9535450  38.3019340
  79.1385190  11.7354710  48.2800400  79.1100620  12.1397660  47.4128830
  78.9750160  10.8065070  48.1172000  75.6538120   4.3915420  36.1817520
  75.5335720   5.1177510  35.5698790  75.3439010   3.6218330  35.7045430
  73.2923490   7.5630560  41.9886160  73.3703910   7.6979330  41.0441880
  73.9065170   6.8546450  42.1814280  74.5371120   9.2630750  38.3992340
  74.1299200   9.4045340  37.5445940  75.4284130   8.9790910  38.1963550
  84.3550000  13.4122660  45.3059390  84.8694670  13.3230670  46.1081820
  83.5119080  13.7582360  45.5987300  86.3304400  13.6978000  34.7343390
  86.1705540  13.4080940  35.6325220  86.1651110  12.9218130  34.1988620
  78.8092780  13.4776530  36.5115010  78.6335260  12.5612070  36.2982810
  77.9548520  13.8363820  36.7512810  86.0330530  11.2065560  33.2941390
  85.3395690  11.2042850  32.6343670  86.7753390  10.7824880  32.8635560
  85.5980460  12.8328270  37.3689880  86.0537410  12.0517650  37.6828500
  85.9372980  13.5435090  37.9131060  73.3483010   8.6044730  44.5280620
  73.5114050   8.1350090  43.7099990  73.8135460   8.0968290  45.1929460
  87.4076100   1.8227960  46.2973170  86.5569690   1.5233710  46.6182240
  87.2477890   2.0669970  45.3856990  84.5025810   3.3229710  48.3971960
  84.8279220   2.4893460  48.0574190  85.2906140   3.8458230  48.5450290
  77.9116000   2.8584060  37.2922440  77.6856920   2.6421230  38.1969060
  77.1308530   3.2912520  36.9468410  85.1413760   2.8647430  35.8913090
  84.5422650   3.5883230  35.7076710  85.6893370   2.8024210  35.1089540
  80.3515210   3.7569640  47.9582710  80.2558810   2.8164370  47.8083110
  81.1947190   3.9784710  47.5630780  72.9713030   2.0331890  31.3549290
  72.8887700   2.9762650  31.4964280  72.6196090   1.8906800  30.4761640
  84.3333770   4.0916720  42.0167150  83.6014890   4.6003530  42.3657250
  83.9358110   3.2746700  41.7155930  80.8331310   1.7683000  33.4126400
  80.9544130   1.7269480  34.3612220  80.4479820   2.6307150  33.2573130
  79.8452810   4.0784140  32.8109700  79.2769710   3.6302390  32.1845610
  80.5541810   4.4376920  32.2774850  74.9221990   7.9796160  46.6876430
  74.5376780   7.3389830  47.2859390  75.2334180   8.6832280  47.2571160
  81.0719130   4.8272700  42.1685050  81.4389260   4.3531270  42.9146390
  80.8824190   5.7014270  42.5093390  78.8618500   3.8681340  44.4869260
  78.5575570   4.7473320  44.7119620  79.8164960   3.9281130  44.5226700
  77.3900290   8.0742330  35.0836110  76.6162550   7.5339950  34.9234830
  78.1194920   7.5548940  34.7453870  83.5307070   7.1416750  46.7631500
  83.4644380   6.2212420  46.5089090  82.9012210   7.2392190  47.4776140
  86.3246600   2.8365300  33.3154050  87.2126220   3.1482530  33.1405390
  86.2951690   1.9637550  32.9234630  77.4337690   7.7422710  38.7214920
  77.9516360   6.9390970  38.6671810  76.9821710   7.6801850  39.5631750
  82.3207190   9.0088990  33.9942220  82.6622890   9.7531220  33.4985540
  81.4919900   9.3220110  34.3567050  74.9182230   4.7084080  45.6340620
  74.5597170   5.3737930  46.2213960  74.6236790   3.8767630  46.0053240
  78.1195350   5.1668320  48.5180170  77.8195490   5.3125500  47.6207990
  78.8906590   4.6073610  48.4253560  83.4623800   9.9637320  46.5135300
  83.4768340   9.0318280  46.2954210  82.7548900  10.0497080  47.1525070
  85.2034600   8.3304830  39.3587730  85.5558420   7.7332960  38.6989100
  84.3196930   8.0049060  39.5295980  81.2897880   9.0902520  36.7658140
  81.9769010   9.6371730  37.1465730  80.5030300   9.6343250  36.8007750
  73.4290280   4.7075340  32.2575220  74.2985130   4.9900140  32.5411140
  72.9380600   5.5211210  32.1424030  80.5925090   6.0948550  36.3783500
  81.0487870   6.9053800  36.6043690  80.2413300   5.7771690  37.2101990
  82.8957700  11.6054890  43.6075800  83.5399920  11.8114270  44.2849220
  83.2587140  10.8443290  43.1546650  84.1689780   9.6087240  42.3253250
  84.8112010   8.9080400  42.4385420  84.6939130  10.3885680  42.1450140
  85.9427400  10.4082140  45.5289310  86.2783640  10.9948830  46.2067230
  85.0227740  10.2774850  45.7587100  73.7961530  13.9202720  32.8236850
  74.1559170  14.5192060  32.1694120  73.6553870  14.4662610  33.5971880
  73.7803390  12.1857580  47.2979250  73.8894510  11.2452320  47.1574640
  73.1283950  12.4512330  46.6492980  81.7715980  10.4573470  48.6977370
  81.4512850   9.7382710  49.2423060  81.0974340  11.1328540  48.7713430
  79.8130150  11.3033920  33.6410520  79.8040250  12.0363610  33.0255030
  78.8928510  11.0565500  33.7337480  75.4136790   6.5248810  34.3857280
  74.8064740   7.2647710  34.3952580  75.8886140   6.6148170  33.5595480
  82.7989750  11.3662160  32.3035710  82.9001730  11.1626150  31.3737690
  81.8991490  11.1120440  32.5083490  81.9471570   3.3439220  44.2852140
  82.4456820   3.8185040  44.9503990  82.0894520   2.4202740  44.4922170
  81.4407860  13.8848480  36.9983380  81.6949360  13.8469870  36.0762750
  80.4920340  13.7581810  36.9911630  77.4242080   6.4859960  32.1345850
  78.1905350   6.3741320  32.6971280  77.5016770   5.7897930  31.4822620
  76.1188840   3.9185030  32.8178740  76.1992430   2.9712540  32.9296140
  77.0108590   4.2491910  32.9239400  76.9203550  14.0680420  39.9213280
  77.6566030  13.5195880  40.1921850  77.3044470  14.9336430  39.7819270
  73.8049030  10.1353990  35.7954790  72.8788810  10.3775130  35.7860200
  74.2705460  10.9628250  35.6739540  75.9261830  13.2526490  49.1098860
  76.7274560  13.5738540  49.5234260  75.4113650  12.8922070  49.8318770
  80.0305860  13.2410730  31.7438850  80.8234470  13.5299560  31.2920640
  79.5110210  12.8102900  31.0651330  84.7626460   9.3606360  49.0574270
  84.1564620   9.3837960  48.3170020  84.4580570   8.6289400  49.5941520
  86.1926830  13.0886650  47.6683680  87.1448580  13.0044670  47.6183920
  86.0455050  13.7528360  48.3417470  73.6459640   5.7399950  48.0534910
  74.1498660   5.1607230  48.6251140  72.9067060   6.0240180  48.5911280
  80.5483260   8.4614140  31.6081200  80.4433900   7.8466490  32.3342580
  80.3807480   7.9380030  30.8244210  80.6997580   7.1470940  47.5870430
  79.9343250   7.7155940  47.5025100  80.8813540   6.8547150  46.6938660
  83.7885990   7.5234170  32.2123190  83.2396090   7.9703470  32.8565930
  84.4105250   7.0183420  32.7360860  75.6782720   3.8829540  48.9484980
  75.7188060   3.5843410  49.8570210  76.5328220   4.2837150  48.7892500
  79.4561110   6.4825090  34.1088490  79.8777530   6.3164960  34.9519880
  79.5811950   5.6725320  33.6143630  77.6188530   2.4621640  46.9159470
  77.0884990   1.9712590  46.2882810  78.2876600   2.8905840  46.3817400
  81.9688750   5.5062700  31.3565590  82.4894410   4.7911720  30.9906740
  82.6157150   6.1448570  31.6566100  86.5166590   6.9291100  46.6800660
  86.9307610   7.0836180  47.5291080  85.5817590   7.0546320  46.8426440
  81.2781820   6.8811580  44.6496590  81.6969930   7.7244310  44.4772830
  80.3590450   7.0183620  44.4203370  83.6145720   4.6127760  46.0334430
  83.7341930   4.0168900  46.7729270  84.4739720   4.6497450  45.6135730
  85.9533620   5.1664950  44.6096940  85.4268840   5.6907570  44.0062080
  86.2964960   5.7992340  45.2406670  78.3520010   2.5558320  31.0546650
  78.1509070   1.6925680  31.4159990  78.1812060   2.4691680  30.1168250
  79.1289240  13.1864590  45.7654320  78.5910330  13.9110650  45.4463020
  79.3823200  12.7094930  44.9751660  81.9851450  14.4215800  46.0240970
  81.9110150  15.3250940  46.3313340  81.0830290  14.1027700  45.9963040
  82.5336780  13.5874310  33.6467330  83.4287570  13.9259280  33.6686090
  82.5654410  12.8653720  33.0191610  76.1732940   8.9601360  31.8754330
  76.6107810   9.5031030  32.5311910  76.6580670   8.1348310  31.8850670
  73.3878740  11.7490390  39.3274590  73.7181750  10.8811450  39.0953230
  73.8169740  11.9548910  40.1579550  77.9840660  10.0799400  36.9876560
  77.6836200   9.9564370  37.8880470  77.8778150   9.2207990  36.5792290
  73.8768950  12.6160980  42.0656220  73.4399940  12.7961780  42.8980370
  74.4446630  13.3735600  41.9237940  73.7093380   5.1281210  38.4245100
  73.0542220   4.8592850  37.7804800  74.5471330   5.0185690  37.9747080
  74.7469310   5.5133780  42.9648440  75.1142350   5.4261180  43.8444460
  74.1780130   4.7500330  42.8655300  74.2985310   2.4242870  46.8706860
  73.4041360   2.3909630  47.2100570  74.8382860   2.6229660  47.6358110
  72.9231460   2.3380140  34.3670430  72.0195540   2.6010340  34.1922090
  73.4072080   2.6091310  33.5870390  76.1621390  10.0266470  48.1268590
  76.1191020   9.6559380  49.0083050  76.2932400  10.9644040  48.2670410
  79.8627420  11.5826060  43.7278310  79.6218780  11.8500620  42.8408830
  80.8030060  11.7531790  43.7829170  76.0009420  12.9728720  45.2466370
  75.4069740  12.8413420  45.9856410  75.9933260  12.1366860  44.7808470
  75.6321650  10.3387100  44.1974410  74.9055710   9.7192390  44.1300360
  75.6930800  10.7327710  43.3272490  79.2366750  12.5532100  40.9823820
  79.7531770  11.9419460  40.4572080  79.8864130  13.0560880  41.4734830
  81.9762250  13.4440590  41.8092800  82.2640060  13.1894890  40.9325810
  82.4885470  12.8917950  42.3998370  73.9151650  13.6561490  37.4071170
  73.7473690  13.0232170  38.1053060  73.0486160  13.8620890  37.0565360
  75.5214350  12.3494720  34.8521310  74.9961970  12.7302750  34.1483270
  75.4458930  12.9745490  35.5731020  82.0434610  14.3656690  49.1761000
  82.9701920  14.1300960  49.2196960  82.0285040  15.1928690  48.6947030
  78.1207320  14.2977100  33.7270560  78.8526140  14.0136380  33.1794450
  78.3800990  14.0590380  34.6169940  77.2822110  10.4141830  33.7316890
  76.6530990  10.8826930  34.2802720  77.3969940   9.5691050  34.1663080
  84.7371830   4.4647490  19.8818090  84.6565880   3.5502100  19.6109800
  84.3236250   4.9614560  19.1757800  82.8689870   6.2426510  21.7627360
  82.0931970   5.7626950  22.0525930  83.5202800   5.5632160  21.5883520
  76.8855700   6.5546320  22.6403120  76.0540580   6.2995030  23.0399630
  77.4936680   6.6257090  23.3761040  76.8656960  10.5886410  22.8361140
  77.1685000   9.6984150  22.6571360  77.6100550  11.1456630  22.6083390
  73.2580660   4.1153860  22.3085210  73.8296770   3.3476060  22.3088850
  73.2582200   4.4142620  21.3991820  83.1160610  12.9344710  20.1630480
  82.4972050  13.3902210  19.5924920  83.9712390  13.0896170  19.7620180
  82.3098860   8.9183700  21.7697520  82.2407140   7.9773640  21.6086650
  83.0718720   9.0085110  22.3420090  79.3116770   3.0666080  21.7909070
  79.8194990   3.5647050  22.4314090  79.8430010   2.2901280  21.6148430
  83.9823960   7.8183950  17.5562390  83.3641230   8.2833400  16.9925110
  84.4947210   8.5111430  17.9731900  78.8455720   7.3459820  24.2345990
  78.5125100   7.9728740  24.8767060  79.0222400   7.8721700  23.4547660
  78.0574820   9.3140620  26.0495170  78.6748820   9.9891700  25.7679620
  77.1967940   9.7228600  25.9582670  73.3507160   8.5040480  14.9302020
  72.9735140   8.9927580  14.1986920  73.6080230   9.1765760  15.5608550
  86.5111150  12.6224160  22.6794990  86.5238310  12.2186450  21.8117250
  85.9586370  13.3971450  22.5756420  85.9096590   7.5254000  24.0077600
  86.3265380   7.3114110  23.1731060  86.6336410   7.7826790  24.5786220
  83.3476850   4.9705700  17.1247650  82.4206130   4.9043080  17.3536120
  83.5001670   5.9085830  17.0102890  87.3774140   6.5326000  17.6282900
  86.7586560   6.1945550  16.9809200  87.3598590   5.8885760  18.3362090
  86.8200700   2.7110540  25.0448710  86.4071880   3.5364250  25.2988700
  86.0876650   2.1255580  24.8525070  78.9533490   5.4970440  19.9067380
  78.5490490   4.7847690  19.4113280  79.0396610   5.1523680  20.7955420
  79.4215190   9.1838000  22.0706590  79.1243480   8.5783470  21.3914370
  80.3715010   9.2215310  21.9595950  77.6662110   2.2713650  23.6866420
  78.2176700   2.3808990  22.9119670  78.1805620   2.6451250  24.4021650
  78.5133620   8.9219690  28.7214390  77.6162150   9.1459660  28.9687790
  78.5386490   9.0454630  27.7725790  85.5538840   5.7712810  14.6355650
  85.9932120   4.9335240  14.4893470  86.2667260   6.4042210  14.7219790
  77.3404840   5.7933010  27.2971760  77.2012610   6.6655810  27.6659160
  76.4586200   5.4505820  27.1519700  83.6634220  10.7108880  18.6036890
  84.1030130  11.4533210  18.1892280  83.6021110  10.9535450  19.5275850
  79.1385190  11.7354710  29.5056910  79.1100620  12.1397660  28.6385340
  78.9750160  10.8065070  29.3428510  75.6538120   4.3915420  17.4074030
  75.5335720   5.1177510  16.7955300  75.3439010   3.6218330  16.9301940
  73.2923490   7.5630560  23.2142670  73.3703910   7.6979330  22.2698390
  73.9065170   6.8546450  23.4070790  74.5371120   9.2630750  19.6248850
  74.1299200   9.4045340  18.7702450  75.4284130   8.9790910  19.4220060
  84.3550000  13.4122660  26.5315900  84.8694670  13.3230670  27.3338330
  83.5119080  13.7582360  26.8243810  86.3304400  13.6978000  15.9599900
  86.1705540  13.4080940  16.8581730  86.1651110  12.9218130  15.4245130
  78.8092780  13.4776530  17.7371520  78.6335260  12.5612070  17.5239320
  77.9548520  13.8363820  17.9769320  86.0330530  11.2065560  14.5197900
  85.3395690  11.2042850  13.8600180  86.7753390  10.7824880  14.0892070
  85.5980460  12.8328270  18.5946390  86.0537410  12.0517650  18.9085010
  85.9372980  13.5435090  19.1387570  73.3483010   8.6044730  25.7537130
  73.5114050   8.1350090  24.9356500  73.8135460   8.0968290  26.4185970
  87.4076100   1.8227960  27.5229680  86.5569690   1.5233710  27.8438750
  87.2477890   2.0669970  26.6113500  84.5025810   3.3229710  29.6228470
  84.8279220   2.4893460  29.2830700  85.2906140   3.8458230  29.7706800
  77.9116000   2.8584060  18.5178950  77.6856920   2.6421230  19.4225570
  77.1308530   3.2912520  18.1724920  85.1413760   2.8647430  17.1169600
  84.5422650   3.5883230  16.9333220  85.6893370   2.8024210  16.3346050
  80.3515210   3.7569640  29.1839220  80.2558810   2.8164370  29.0339620
  81.1947190   3.9784710  28.7887290  72.9713030   2.0331890  12.5805800
  72.8887700   2.9762650  12.7220790  72.6196090   1.8906800  11.7018150
  84.3333770   4.0916720  23.2423660  83.6014890   4.6003530  23.5913760
  83.9358110   3.2746700  22.9412440  80.8331310   1.7683000  14.6382910
  80.9544130   1.7269480  15.5868730  80.4479820   2.6307150  14.4829640
  79.8452810   4.0784140  14.0366210  79.2769710   3.6302390  13.4102120
  80.5541810   4.4376920  13.5031360  74.9221990   7.9796160  27.9132940
  74.5376780   7.3389830  28.5115900  75.2334180   8.6832280  28.4827670
  81.0719130   4.8272700  23.3941560  81.4389260   4.3531270  24.1402900
  80.8824190   5.7014270  23.7349900  78.8618500   3.8681340  25.7125770
  78.5575570   4.7473320  25.9376130  79.8164960   3.9281130  25.7483210
  77.3900290   8.0742330  16.3092620  76.6162550   7.5339950  16.1491340
  78.1194920   7.5548940  15.9710380  83.5307070   7.1416750  27.9888010
  83.4644380   6.2212420  27.7345600  82.9012210   7.2392190  28.7032650
  86.3246600   2.8365300  14.5410560  87.2126220   3.1482530  14.3661900
  86.2951690   1.9637550  14.1491140  77.4337690   7.7422710  19.9471430
  77.9516360   6.9390970  19.8928320  76.9821710   7.6801850  20.7888260
  82.3207190   9.0088990  15.2198730  82.6622890   9.7531220  14.7242050
  81.4919900   9.3220110  15.5823560  74.9182230   4.7084080  26.8597130
  74.5597170   5.3737930  27.4470470  74.6236790   3.8767630  27.2309750
  78.1195350   5.1668320  29.7436680  77.8195490   5.3125500  28.8464500
  78.8906590   4.6073610  29.6510070  83.4623800   9.9637320  27.7391810
  83.4768340   9.0318280  27.5210720  82.7548900  10.0497080  28.3781580
  85.2034600   8.3304830  20.5844240  85.5558420   7.7332960  19.9245610
  84.3196930   8.0049060  20.7552490  81.2897880   9.0902520  17.9914650
  81.9769010   9.6371730  18.3722240  80.5030300   9.6343250  18.0264260
  73.4290280   4.7075340  13.4831730  74.2985130   4.9900140  13.7667650
  72.9380600   5.5211210  13.3680540  80.5925090   6.0948550  17.6040010
  81.0487870   6.9053800  17.8300200  80.2413300   5.7771690  18.4358500
  82.8957700  11.6054890  24.8332310  83.5399920  11.8114270  25.5105730
  83.2587140  10.8443290  24.3803160  84.1689780   9.6087240  23.5509760
  84.8112010   8.9080400  23.6641930  84.6939130  10.3885680  23.3706650
  85.9427400  10.4082140  26.7545820  86.2783640  10.9948830  27.4323740
  85.0227740  10.2774850  26.9843610  73.7961530  13.9202720  14.0493360
  74.1559170  14.5192060  13.3950630  73.6553870  14.4662610  14.8228390
  73.7803390  12.1857580  28.5235760  73.8894510  11.2452320  28.3831150
  73.1283950  12.4512330  27.8749490  81.7715980  10.4573470  29.9233880
  81.4512850   9.7382710  30.4679570  81.0974340  11.1328540  29.9969940
  79.8130150  11.3033920  14.8667030  79.8040250  12.0363610  14.2511540
  78.8928510  11.0565500  14.9593990  75.4136790   6.5248810  15.6113790
  74.8064740   7.2647710  15.6209090  75.8886140   6.6148170  14.7851990
  82.7989750  11.3662160  13.5292220  82.9001730  11.1626150  12.5994200
  81.8991490  11.1120440  13.7340000  81.9471570   3.3439220  25.5108650
  82.4456820   3.8185040  26.1760500  82.0894520   2.4202740  25.7178680
  81.4407860  13.8848480  18.2239890  81.6949360  13.8469870  17.3019260
  80.4920340  13.7581810  18.2168140  77.4242080   6.4859960  13.3602360
  78.1905350   6.3741320  13.9227790  77.5016770   5.7897930  12.7079130
  76.1188840   3.9185030  14.0435250  76.1992430   2.9712540  14.1552650
  77.0108590   4.2491910  14.1495910  76.9203550  14.0680420  21.1469790
  77.6566030  13.5195880  21.4178360  77.3044470  14.9336430  21.0075780
  73.8049030  10.1353990  17.0211300  72.8788810  10.3775130  17.0116710
  74.2705460  10.9628250  16.8996050  75.9261830  13.2526490  30.3355370
  76.7274560  13.5738540  30.7490770  75.4113650  12.8922070  31.0575280
  80.0305860  13.2410730  12.9695360  80.8234470  13.5299560  12.5177150
  79.5110210  12.8102900  12.2907840  84.7626460   9.3606360  30.2830780
  84.1564620   9.3837960  29.5426530  84.4580570   8.6289400  30.8198030
  86.1926830  13.0886650  28.8940190  87.1448580  13.0044670  28.8440430
  86.0455050  13.7528360  29.5673980  73.6459640   5.7399950  29.2791420
  74.1498660   5.1607230  29.8507650  72.9067060   6.0240180  29.8167790
  80.5483260   8.4614140  12.8337710  80.4433900   7.8466490  13.5599090
  80.3807480   7.9380030  12.0500720  80.6997580   7.1470940  28.8126940
  79.9343250   7.7155940  28.7281610  80.8813540   6.8547150  27.9195170
  83.7885990   7.5234170  13.4379700  83.2396090   7.9703470  14.0822440
  84.4105250   7.0183420  13.9617370  75.6782720   3.8829540  30.1741490
  75.7188060   3.5843410  31.0826720  76.5328220   4.2837150  30.0149010
  79.4561110   6.4825090  15.3345000  79.8777530   6.3164960  16.1776390
  79.5811950   5.6725320  14.8400140  77.6188530   2.4621640  28.1415980
  77.0884990   1.9712590  27.5139320  78.2876600   2.8905840  27.6073910
  81.9688750   5.5062700  12.5822100  82.4894410   4.7911720  12.2163250
  82.6157150   6.1448570  12.8822610  86.5166590   6.9291100  27.9057170
  86.9307610   7.0836180  28.7547590  85.5817590   7.0546320  28.0682950
  81.2781820   6.8811580  25.8753100  81.6969930   7.7244310  25.7029340
  80.3590450   7.0183620  25.6459880  83.6145720   4.6127760  27.2590940
  83.7341930   4.0168900  27.9985780  84.4739720   4.6497450  26.8392240
  85.9533620   5.1664950  25.8353450  85.4268840   5.6907570  25.2318590
  86.2964960   5.7992340  26.4663180  78.3520010   2.5558320  12.2803160
  78.1509070   1.6925680  12.6416500  78.1812060   2.4691680  11.3424760
  79.1289240  13.1864590  26.9910830  78.5910330  13.9110650  26.6719530
  79.3823200  12.7094930  26.2008170  81.9851450  14.4215800  27.2497480
  81.9110150  15.3250940  27.5569850  81.0830290  14.1027700  27.2219550
  82.5336780  13.5874310  14.8723840  83.4287570  13.9259280  14.8942600
  82.5654410  12.8653720  14.2448120  76.1732940   8.9601360  13.1010840
  76.6107810   9.5031030  13.7568420  76.6580670   8.1348310  13.1107180
  73.3878740  11.7490390  20.5531100  73.7181750  10.8811450  20.3209740
  73.8169740  11.9548910  21.3836060  77.9840660  10.0799400  18.2133070
  77.6836200   9.9564370  19.1136980  77.8778150   9.2207990  17.8048800
  73.8768950  12.6160980  23.2912730  73.4399940  12.7961780  24.1236880
  74.4446630  13.3735600  23.1494450  73.7093380   5.1281210  19.6501610
  73.0542220   4.8592850  19.0061310  74.5471330   5.0185690  19.2003590
  74.7469310   5.5133780  24.1904950  75.1142350   5.4261180  25.0700970
  74.1780130   4.7500330  24.0911810  74.2985310   2.4242870  28.0963370
  73.4041360   2.3909630  28.4357080  74.8382860   2.6229660  28.8614620
  72.9231460   2.3380140  15.5926940  72.0195540   2.6010340  15.4178600
  73.4072080   2.6091310  14.8126900  76.1621390  10.0266470  29.3525100
  76.1191020   9.6559380  30.2339560  76.2932400  10.9644040  29.4926920
  79.8627420  11.5826060  24.9534820  79.6218780  11.8500620  24.0665340
  80.8030060  11.7531790  25.0085680  76.0009420  12.9728720  26.4722880
  75.4069740  12.8413420  27.2112920  75.9933260  12.1366860  26.0064980
  75.6321650  10.3387100  25.4230920  74.9055710   9.7192390  25.3556870
  75.6930800  10.7327710  24.5529000  79.2366750  12.5532100  22.2080330
  79.7531770  11.9419460  21.6828590  79.8864130  13.0560880  22.6991340
  81.9762250  13.4440590  23.0349310  82.2640060  13.1894890  22.1582320
  82.4885470  12.8917950  23.6254880  73.9151650  13.6561490  18.6327680
  73.7473690  13.0232170  19.3309570  73.0486160  13.8620890  18.2821870
  75.5214350  12.3494720  16.0777820  74.9961970  12.7302750  15.3739780
  75.4458930  12.9745490  16.7987530  82.0434610  14.3656690  30.4017510
  82.9701920  14.1300960  30.4453470  82.0285040  15.1928690  29.9203540
  78.1207320  14.2977100  14.9527070  78.8526140  14.0136380  14.4050960
  78.3800990  14.0590380  15.8426450  77.2822110  10.4141830  14.9573400
  76.6530990  10.8826930  15.5059230  77.3969940   9.5691050  15.3919590
  82.8689870   6.2426510   2.9883870  82.0931970   5.7626950   3.2782440
  83.5202800   5.5632160   2.8140030  76.8855700   6.5546320   3.8659630
  76.0540580   6.2995030   4.2656140  77.4936680   6.6257090   4.6017550
  76.8656960  10.5886410   4.0617650  77.1685000   9.6984150   3.8827870
  77.6100550  11.1456630   3.8339900  73.2580660   4.1153860   3.5341720
  73.8296770   3.3476060   3.5345360  73.2582200   4.4142620   2.6248330
  82.3098860   8.9183700   2.9954030  82.2407140   7.9773640   2.8343160
  83.0718720   9.0085110   3.5676600  79.3116770   3.0666080   3.0165580
  79.8194990   3.5647050   3.6570600  79.8430010   2.2901280   2.8404940
  78.8455720   7.3459820   5.4602500  78.5125100   7.9728740   6.1023570
  79.0222400   7.8721700   4.6804170  78.0574820   9.3140620   7.2751680
  78.6748820   9.9891700   6.9936130  77.1967940   9.7228600   7.1839180
  86.5111150  12.6224160   3.9051500  86.5238310  12.2186450   3.0373760
  85.9586370  13.3971450   3.8012930  85.9096590   7.5254000   5.2334110
  86.3265380   7.3114110   4.3987570  86.6336410   7.7826790   5.8042730
  86.8200700   2.7110540   6.2705220  86.4071880   3.5364250   6.5245210
  86.0876650   2.1255580   6.0781580  79.4215190   9.1838000   3.2963100
  79.1243480   8.5783470   2.6170880  80.3715010   9.2215310   3.1852460
  77.6662110   2.2713650   4.9122930  78.2176700   2.3808990   4.1376180
  78.1805620   2.6451250   5.6278160  78.5133620   8.9219690   9.9470900
  77.6162150   9.1459660  10.1944300  78.5386490   9.0454630   8.9982300
  77.3404840   5.7933010   8.5228270  77.2012610   6.6655810   8.8915670
  76.4586200   5.4505820   8.3776210  79.1385190  11.7354710  10.7313420
  79.1100620  12.1397660   9.8641850  78.9750160  10.8065070  10.5685020
  73.2923490   7.5630560   4.4399180  73.3703910   7.6979330   3.4954900
  73.9065170   6.8546450   4.6327300  84.3550000  13.4122660   7.7572410
  84.8694670  13.3230670   8.5594840  83.5119080  13.7582360   8.0500320
  73.3483010   8.6044730   6.9793640  73.5114050   8.1350090   6.1613010
  73.8135460   8.0968290   7.6442480  87.4076100   1.8227960   8.7486190
  86.5569690   1.5233710   9.0695260  87.2477890   2.0669970   7.8370010
  84.5025810   3.3229710  10.8484980  84.8279220   2.4893460  10.5087210
  85.2906140   3.8458230  10.9963310  80.3515210   3.7569640  10.4095730
  80.2558810   2.8164370  10.2596130  81.1947190   3.9784710  10.0143800
  84.3333770   4.0916720   4.4680170  83.6014890   4.6003530   4.8170270
  83.9358110   3.2746700   4.1668950  74.9221990   7.9796160   9.1389450
  74.5376780   7.3389830   9.7372410  75.2334180   8.6832280   9.7084180
  81.0719130   4.8272700   4.6198070  81.4389260   4.3531270   5.3659410
  80.8824190   5.7014270   4.9606410  78.8618500   3.8681340   6.9382280
  78.5575570   4.7473320   7.1632640  79.8164960   3.9281130   6.9739720
  83.5307070   7.1416750   9.2144520  83.4644380   6.2212420   8.9602110
  82.9012210   7.2392190   9.9289160  74.9182230   4.7084080   8.0853640
  74.5597170   5.3737930   8.6726980  74.6236790   3.8767630   8.4566260
  78.1195350   5.1668320  10.9693190  77.8195490   5.3125500  10.0721010
  78.8906590   4.6073610  10.8766580  83.4623800   9.9637320   8.9648320
  83.4768340   9.0318280   8.7467230  82.7548900  10.0497080   9.6038090
  82.8957700  11.6054890   6.0588820  83.5399920  11.8114270   6.7362240
  83.2587140  10.8443290   5.6059670  84.1689780   9.6087240   4.7766270
  84.8112010   8.9080400   4.8898440  84.6939130  10.3885680   4.5963160
  85.9427400  10.4082140   7.9802330  86.2783640  10.9948830   8.6580250
  85.0227740  10.2774850   8.2100120  73.7803390  12.1857580   9.7492270
  73.8894510  11.2452320   9.6087660  73.1283950  12.4512330   9.1006000
  81.7715980  10.4573470  11.1490390  81.4512850   9.7382710  11.6936080
  81.0974340  11.1328540  11.2226450  81.9471570   3.3439220   6.7365160
  82.4456820   3.8185040   7.4017010  82.0894520   2.4202740   6.9435190
  76.9203550  14.0680420   2.3726300  77.6566030  13.5195880   2.6434870
  77.3044470  14.9336430   2.2332290  75.9261830  13.2526490  11.5611880
  76.7274560  13.5738540  11.9747280  75.4113650  12.8922070  12.2831790
  84.7626460   9.3606360  11.5087290  84.1564620   9.3837960  10.7683040
  84.4580570   8.6289400  12.0454540  86.1926830  13.0886650  10.1196700
  87.1448580  13.0044670  10.0696940  86.0455050  13.7528360  10.7930490
  73.6459640   5.7399950  10.5047930  74.1498660   5.1607230  11.0764160
  72.9067060   6.0240180  11.0424300  80.6997580   7.1470940  10.0383450
  79.9343250   7.7155940   9.9538120  80.8813540   6.8547150   9.1451680
  75.6782720   3.8829540  11.3998000  75.7188060   3.5843410  12.3083230
  76.5328220   4.2837150  11.2405520  77.6188530   2.4621640   9.3672490
  77.0884990   1.9712590   8.7395830  78.2876600   2.8905840   8.8330420
  86.5166590   6.9291100   9.1313680  86.9307610   7.0836180   9.9804100
  85.5817590   7.0546320   9.2939460  81.2781820   6.8811580   7.1009610
  81.6969930   7.7244310   6.9285850  80.3590450   7.0183620   6.8716390
  83.6145720   4.6127760   8.4847450  83.7341930   4.0168900   9.2242290
  84.4739720   4.6497450   8.0648750  85.9533620   5.1664950   7.0609960
  85.4268840   5.6907570   6.4575100  86.2964960   5.7992340   7.6919690
  79.1289240  13.1864590   8.2167340  78.5910330  13.9110650   7.8976040
  79.3823200  12.7094930   7.4264680  81.9851450  14.4215800   8.4753990
  81.9110150  15.3250940   8.7826360  81.0830290  14.1027700   8.4476060
  73.8768950  12.6160980   4.5169240  73.4399940  12.7961780   5.3493390
  74.4446630  13.3735600   4.3750960  74.7469310   5.5133780   5.4161460
  75.1142350   5.4261180   6.2957480  74.1780130   4.7500330   5.3168320
  74.2985310   2.4242870   9.3219880  73.4041360   2.3909630   9.6613590
  74.8382860   2.6229660  10.0871130  76.1621390  10.0266470  10.5781610
  76.1191020   9.6559380  11.4596070  76.2932400  10.9644040  10.7183430
  79.8627420  11.5826060   6.1791330  79.6218780  11.8500620   5.2921850
  80.8030060  11.7531790   6.2342190  76.0009420  12.9728720   7.6979390
  75.4069740  12.8413420   8.4369430  75.9933260  12.1366860   7.2321490
  75.6321650  10.3387100   6.6487430  74.9055710   9.7192390   6.5813380
  75.6930800  10.7327710   5.7785510  79.2366750  12.5532100   3.4336840
  79.7531770  11.9419460   2.9085100  79.8864130  13.0560880   3.9247850
  81.9762250  13.4440590   4.2605820  82.2640060  13.1894890   3.3838830
  82.4885470  12.8917950   4.8511390  82.0434610  14.3656690  11.6274020
  82.9701920  14.1300960  11.6709980  82.0285040  15.1928690  11.1460050
  65.9628340  79.5621450  76.2048560  65.8822390  78.6476060  75.9340270
  65.5492760  80.0588520  75.4988270  64.0946380  81.3400470  78.0857830
  63.3188480  80.8600910  78.3756400  64.7459310  80.6606120  77.9113990
  56.5204160  76.6122170  72.7475980  55.6320860  76.9538140  72.6455860
  56.8045350  76.4122490  71.8556810  54.4837170  79.2127820  78.6315680
  55.0553280  78.4450020  78.6319320  54.4838710  79.5116580  77.7222290
  63.5355370  84.0157660  78.0927990  63.4663650  83.0747600  77.9317120
  64.2975230  84.1059070  78.6650560  64.5660540  76.8228040  78.3196920
  64.9425360  75.9499920  78.2070590  64.4680050  77.1586740  77.4287360
  58.6965550  75.1953670  73.7814360  58.8032300  76.0957400  74.0883120
  57.7857910  75.1471640  73.4909010  68.3484660  74.3178480  75.2525260
  69.1694280  73.8275050  75.2950740  68.3818740  74.9076140  76.0057100
  60.5373280  78.1640040  78.1139540  61.0451500  78.6621010  78.7544560
  61.0686520  77.3875240  77.9378900  65.2080470  82.9157910  73.8792860
  64.5897740  83.3807360  73.3155580  65.7203720  83.6085390  74.2962370
  68.5846140  76.2578860  78.0252800  67.8801710  76.5463750  78.6055910
  68.9458300  77.0678970  77.6652360  71.6533060  75.7033650  78.4162010
  70.7057970  75.7372630  78.5477440  71.9783050  76.5172600  78.8011370
  62.1852600  72.0030830  76.7118000  62.4927580  71.4477720  75.9953500
  61.2553300  72.1375290  76.5290990  64.5733360  80.0679660  73.4478120
  63.6462640  80.0017040  73.6766590  64.7258180  81.0059790  73.3333360
  64.5602440  76.3396660  70.4445280  63.6206110  76.5010620  70.5297740
  64.8785700  77.0582340  69.8981270  68.6030650  81.6299960  73.9513370
  67.9843070  81.2919510  73.3039670  68.5855100  80.9859720  74.6592560
  60.1790000  80.5944400  76.2297850  59.7747000  79.8821650  75.7343750
  60.2653120  80.2497640  77.1185890  66.7795350  80.8686770  70.9586120
  67.2188630  80.0309200  70.8123940  67.4923770  81.5016170  71.0450260
  70.3612490  72.1229580  69.2727160  70.0485150  72.2156410  70.1726230
  71.1224960  72.7010610  69.2224590  56.8794630  79.4889380  73.7304500
  56.7592230  80.2151470  73.1185770  56.5695520  78.7192290  73.2532410
  59.3458290  72.8324450  77.1128170  58.9026440  73.6133990  76.7812690
  59.9043280  73.1554340  77.8199110  62.4617110  72.4535150  71.9934000
  61.8371290  72.4495020  72.7187310  62.3747230  71.5866110  71.5969970
  59.1372510  77.9558020  74.8409420  58.9113430  77.7395190  75.7456040
  58.3565040  78.3886480  74.4955390  66.3670270  77.9621390  73.4400070
  65.7679160  78.6857190  73.2563690  66.9149880  77.8998170  72.6576520
  64.9735140  76.5984930  75.4703350  65.3664710  76.9157130  74.6572040
  65.3351990  75.7196810  75.5847870  54.0099310  73.1885730  77.6933550
  53.7212360  73.7588590  78.4058530  54.7545070  72.7090180  78.0564780
  54.1969540  77.1305850  68.9036270  54.1144210  78.0736610  69.0451260
  53.8452600  76.9880760  68.0248620  61.9967670  75.8644880  77.9706620
  62.0003730  75.4234830  77.1211160  62.8918790  76.1862210  78.0778440
  57.8470050  75.7471370  76.9300830  57.5070100  76.2246600  77.6867880
  57.0847370  75.2936490  76.5701930  62.0587820  76.8656960  70.9613380
  62.1800640  76.8243440  71.9099200  61.6736330  77.7281110  70.8060110
  61.0709320  79.1758100  70.3596680  60.5026220  78.7276350  69.7332590
  61.7798320  79.5350880  69.8261830  55.1616130  74.6690350  75.8465500
  54.8763050  74.3046020  76.6844120  55.0994990  73.9370810  75.2328640
  58.6156800  83.1716290  72.6323090  57.8419060  82.6313910  72.4721810
  59.3451430  82.6522900  72.2940850  69.3744780  82.1681650  78.4249480
  70.0943900  82.6636940  78.0345590  69.1726600  81.4899540  77.7803350
  64.8354720  73.5619610  72.5678870  64.0219330  73.0632780  72.4924180
  64.6416670  74.4017860  72.1515220  67.5503110  77.9339260  70.8641030
  68.4382730  78.2456490  70.6892370  67.5208200  77.0611510  70.4721610
  58.6594200  82.8396670  76.2701900  59.1772870  82.0364930  76.2158790
  58.2078220  82.7775810  77.1118730  69.8217380  79.2451100  70.3320890
  69.7381100  79.6765320  69.4817330  70.5411570  79.7049450  70.7647710
  66.4291110  83.4278790  76.9074710  66.7814930  82.8306920  76.2476080
  65.5453440  83.1023020  77.0782960  54.6546790  79.8049300  69.8062200
  55.5241640  80.0874100  70.0898120  54.1637110  80.6185170  69.6911010
  61.8181600  81.1922510  73.9270480  62.2744380  82.0027760  74.1530670
  61.4669810  80.8745650  74.7588970  57.7193380  71.5360160  74.3993000
  57.5908010  71.5278060  75.3477920  56.8955400  71.8743250  74.0484010
  68.8218260  82.9081760  71.2593530  68.5339960  83.3694450  72.0471410
  69.6170430  82.4479530  71.5277750  56.6393300  81.6222770  71.9344260
  56.0321250  82.3621670  71.9439560  57.1142650  81.7122130  71.1082460
  69.5788120  74.7430530  72.4188710  68.9501280  74.8476200  71.7046940
  69.0840040  74.9627310  73.2082590  61.5472150  77.0216480  73.8346590
  60.8388300  77.4902820  74.2760200  61.8316630  76.3638490  74.4691780
  65.5787580  73.7467140  75.2742380  65.4555360  73.7653270  74.3251890
  66.5272140  73.7946080  75.3940780  59.7507170  75.3301560  71.2097300
  60.5997700  75.7671710  71.1437490  59.3838440  75.6421820  72.0369360
  68.6716950  79.9014320  76.1228870  67.7307090  79.9164550  76.2976560
  68.9861020  79.1150280  76.5689170  58.6498590  81.5833920  69.6832830
  59.4161860  81.4715280  70.2458260  58.7273280  80.8871890  69.0309600
  57.3445350  79.0158990  70.3665720  57.4248940  78.0686500  70.4783120
  58.2365100  79.3465870  70.4726380  61.7739770  83.5588100  69.1568180
  61.6690410  82.9440450  69.8829560  61.6063990  83.0353990  68.3731190
  65.0142500  82.6208130  69.7610170  64.4652600  83.0677430  70.4052910
  65.6361760  82.1157380  70.2847840  60.6817620  81.5799050  71.6575470
  61.1034040  81.4138920  72.5006860  60.8068460  80.7699280  71.1630610
  63.1945260  80.6036660  68.9052570  63.7150920  79.8885680  68.5393720
  63.8413660  81.2422530  69.2053080  59.5776520  77.6532280  68.6033630
  59.3765580  76.7899640  68.9646970  59.4068570  77.5665640  67.6655230
  67.0564830  72.4640510  71.1320510  67.3367120  71.6208410  71.4879930
  66.2830560  72.6963620  71.6459260  58.3759320  74.7532900  68.5911510
  58.6785220  74.7600330  67.6830660  59.1153910  74.4030760  69.0879170
  61.5944250  73.6967520  69.5767710  61.2466250  73.0191510  68.9970160
  61.7957020  73.2357030  70.3911100  71.4345550  81.7017240  71.7424420
  72.1964460  82.2713890  71.8484110  71.4499920  81.1344440  72.5132730
  54.9349890  80.2255170  75.9732080  54.2798730  79.9566810  75.3291780
  55.7727840  80.1159650  75.5234060  72.4405520  82.5567340  76.5866350
  72.8114350  81.7734660  76.1802320  73.0807450  83.2456440  76.4083650
  71.4864720  81.9951610  68.8996940  71.7613560  82.9030490  68.7716160
  71.2975460  81.9314140  69.8358930  67.8840330  75.0196460  70.1950570
  68.3025210  74.8327440  69.3547230  67.5776390  74.1675510  70.5053500
  71.3830060  79.9320600  73.8926370  71.0073660  79.1648530  73.4607660
  70.6533180  80.3143300  74.3801300  54.1487970  77.4354100  71.9157410
  53.2452050  77.6984300  71.7409070  54.6328590  77.7065270  71.1357370
  70.6581020  78.1578090  77.1933610  71.1818500  77.6640740  76.5623780
  71.2440440  78.2928450  77.9381180  56.6915180  76.4919640  69.8251790
  57.4006880  76.0702860  69.3399070  55.9755120  76.5594870  69.1935140
  56.3389340  72.5458970  68.8654440  57.0617470  73.0867910  69.1835660
  56.6113860  72.2722390  67.9895980  70.1480990  77.4151440  73.1326020
  70.6440110  77.1822310  73.9174900  69.9497060  76.5763280  72.7163660
  71.5768150  76.0512390  75.6663700  71.4667430  75.8968430  76.6045970
  72.3375740  75.5233330  75.4239110  72.4658420  73.8820310  68.9069840
  73.3907730  73.7501490  68.6988130  72.4434210  73.9613130  69.8606290
  72.5396910  74.6530970  71.5326550  71.7448410  74.5876090  72.0619460
  72.7440190  75.5881610  71.5211900  68.9716840  72.9827850  77.9825380
  69.4124930  72.9272950  77.1346980  68.7024430  73.8985860  78.0535560
  70.8355410  72.6143090  75.9934200  70.7743810  71.6704310  75.8465220
  71.6147440  72.7223180  76.5387660  55.7636180  72.5852230  72.4590010
  56.5215540  72.6981110  71.8854040  55.3013350  73.4221430  72.4133440
  62.3049990  74.6991500  75.4492320  61.4924500  74.3248390  75.1088200
  62.8091630  73.9436580  75.7513510  66.8074970  71.3633950  76.6875390
  67.4104340  71.9354160  77.1623910  66.0667960  71.9273390  76.4649290
  69.9509570  71.7655510  71.9615670  70.1460200  72.6638960  72.2283100
  69.1639440  71.5342590  72.4548620  58.1361330  73.1116280  70.9991980
  58.6654090  72.3246080  70.8699930  58.7689650  73.7907470  71.2327510
  60.3299170  72.8491420  74.0537370  59.7001910  72.1478730  74.2207500
  59.7904310  73.6095550  73.8370530  65.9628340  79.5621450  57.4305070
  65.8822390  78.6476060  57.1596780  65.5492760  80.0588520  56.7244780
  64.0946380  81.3400470  59.3114340  63.3188480  80.8600910  59.6012910
  64.7459310  80.6606120  59.1370500  58.1112210  81.6520280  60.1890100
  57.2797090  81.3968990  60.5886610  58.7193190  81.7231050  60.9248020
  56.5204160  76.6122170  53.9732490  55.6320860  76.9538140  53.8712370
  56.8045350  76.4122490  53.0813320  54.4837170  79.2127820  59.8572190
  55.0553280  78.4450020  59.8575830  54.4838710  79.5116580  58.9478800
  63.5355370  84.0157660  59.3184500  63.4663650  83.0747600  59.1573630
  64.2975230  84.1059070  59.8907070  55.7262040  74.6212180  61.6441120
  55.5464880  73.7237930  61.9243880  55.3242120  75.1684050  62.3188070
  64.5660540  76.8228040  59.5453430  64.9425360  75.9499920  59.4327100
  64.4680050  77.1586740  58.6543870  58.6965550  75.1953670  55.0070870
  58.8032300  76.0957400  55.3139630  57.7857910  75.1471640  54.7165520
  68.3484660  74.3178480  56.4781770  69.1694280  73.8275050  56.5207250
  68.3818740  74.9076140  57.2313610  56.3448710  77.1172680  60.2523460
  57.0258820  77.3811050  60.8710860  56.0296760  76.2773550  60.5861470
  60.5373280  78.1640040  59.3396050  61.0451500  78.6621010  59.9801070
  61.0686520  77.3875240  59.1635410  72.6384210  76.3345230  63.0425400
  71.9336380  76.7226940  62.5240510  72.9042130  77.0295520  63.6446330
  58.8209380  72.8038600  63.6059470  58.8227820  73.3210990  62.8005370
  57.9913690  72.3268780  63.5829400  65.2080470  82.9157910  55.1049370
  64.5897740  83.3807360  54.5412090  65.7203720  83.6085390  55.5218880
  60.0712230  82.4433780  61.7832970  59.7381610  83.0702700  62.4254040
  60.2478910  82.9695660  61.0034640  68.5846140  76.2578860  59.2509310
  67.8801710  76.5463750  59.8312420  68.9458300  77.0678970  58.8908870
  58.5024710  74.5148560  61.6129920  58.8441520  75.3590610  61.3183790
  57.5640520  74.6632300  61.7295260  71.6533060  75.7033650  59.6418520
  70.7057970  75.7372630  59.7733950  71.9783050  76.5172600  60.0267880
  62.1852600  72.0030830  57.9374510  62.4927580  71.4477720  57.2210010
  61.2553300  72.1375290  57.7547500  67.1353100  82.6227960  61.5564580
  67.5521890  82.4088070  60.7218040  67.8592920  82.8800750  62.1273200
  64.5733360  80.0679660  54.6734630  63.6462640  80.0017040  54.9023100
  64.7258180  81.0059790  54.5589870  64.5602440  76.3396660  51.6701790
  63.6206110  76.5010620  51.7554250  64.8785700  77.0582340  51.1237780
  71.0815200  81.0215180  61.6480820  70.2533830  81.0908270  61.1730950
  71.6765680  81.6069490  61.1796650  68.6030650  81.6299960  55.1769880
  67.9843070  81.2919510  54.5296180  68.5855100  80.9859720  55.8849070
  68.0457210  77.8084500  62.5935690  67.6328390  78.6338210  62.8475680
  67.3133160  77.2229540  62.4012050  60.1790000  80.5944400  57.4554360
  59.7747000  79.8821650  56.9600260  60.2653120  80.2497640  58.3442400
  58.8918620  77.3687610  61.2353400  59.4433210  77.4782950  60.4606650
  59.4062130  77.7425210  61.9508630  66.7795350  80.8686770  52.1842630
  67.2188630  80.0309200  52.0380450  67.4923770  81.5016170  52.2706770
  58.5661350  80.8906970  64.8458740  58.4269120  81.7629770  65.2146140
  57.6842710  80.5479780  64.7006680  70.3612490  72.1229580  50.4983670
  70.0485150  72.2156410  51.3982740  71.1224960  72.7010610  50.4481100
  56.8794630  79.4889380  54.9561010  56.7592230  80.2151470  54.3442280
  56.5695520  78.7192290  54.4788920  54.5180000  82.6604520  60.7629650
  54.5960420  82.7953290  59.8185370  55.1321680  81.9520410  60.9557770
  71.5713780  76.8601080  66.4757810  70.9558050  77.3680750  65.9473270
  71.2510200  75.9599410  66.4183750  54.5739520  83.7018690  63.3024110
  54.7370560  83.2324050  62.4843480  55.0391970  83.1942250  63.9672950
  59.3458290  72.8324450  58.3384680  58.9026440  73.6133990  58.0069200
  59.9043280  73.1554340  59.0455620  63.6328100  75.6992970  63.9420000
  63.1707470  75.9075990  64.7539940  63.2306210  74.8852320  63.6390670
  68.6332610  76.9201920  65.0716660  67.7826200  76.6207670  65.3925730
  68.4734400  77.1643930  64.1600480  65.7282320  78.4203670  67.1715450
  66.0535730  77.5867420  66.8317680  66.5162650  78.9432190  67.3193780
  62.4617110  72.4535150  53.2190510  61.8371290  72.4495020  53.9443820
  62.3747230  71.5866110  52.8226480  61.3834190  73.3771780  60.1974280
  61.6806520  74.2834610  60.1166300  61.9319750  72.8890560  59.5833850
  59.1372510  77.9558020  56.0665930  58.9113430  77.7395190  56.9712550
  58.3565040  78.3886480  55.7211900  66.3670270  77.9621390  54.6656580
  65.7679160  78.6857190  54.4820200  66.9149880  77.8998170  53.8833030
  61.5771720  78.8543600  66.7326200  61.4815320  77.9138330  66.5826600
  62.4203700  79.0758670  66.3374270  64.9735140  76.5984930  56.6959860
  65.3664710  76.9157130  55.8828550  65.3351990  75.7196810  56.8104380
  56.7082260  75.2657270  64.8859980  56.3145650  76.1132480  65.0932760
  56.0200660  74.6283640  65.0768620  63.2827310  75.3492240  67.9556720
  62.5925630  75.1564440  68.5902810  64.0259610  75.6326880  68.4881020
  54.0099310  73.1885730  58.9190060  53.7212360  73.7588590  59.6315040
  54.7545070  72.7090180  59.2821290  54.1969540  77.1305850  50.1292780
  54.1144210  78.0736610  50.2707770  53.8452600  76.9880760  49.2505130
  65.5590280  79.1890680  60.7910640  64.8271400  79.6977490  61.1400740
  65.1614620  78.3720660  60.4899420  61.9967670  75.8644880  59.1963130
  62.0003730  75.4234830  58.3467670  62.8918790  76.1862210  59.3034950
  57.8470050  75.7471370  58.1557340  57.5070100  76.2246600  58.9124390
  57.0847370  75.2936490  57.7958440  62.0587820  76.8656960  52.1869890
  62.1800640  76.8243440  53.1355710  61.6736330  77.7281110  52.0316620
  66.0216190  74.6424360  60.2033580  66.0388930  75.0933010  61.0475430
  65.7731770  73.7430000  60.4167020  61.0709320  79.1758100  51.5853190
  60.5026220  78.7276350  50.9589100  61.7798320  79.5350880  51.0518340
  69.4486940  72.0556540  66.0419960  69.7732710  71.3246200  66.5677940
  69.4843450  71.7370180  65.1400950  56.1478500  83.0770120  65.4619920
  55.7633290  82.4363790  66.0602880  56.4590690  83.7806240  66.0314650
  62.2975640  79.9246660  60.9428540  62.6645770  79.4505230  61.6889880
  62.1080700  80.7988230  61.2836880  55.1616130  74.6690350  57.0722010
  54.8763050  74.3046020  57.9100630  55.0994990  73.9370810  56.4585150
  60.0875010  78.9655300  63.2612750  59.7832080  79.8447280  63.4863110
  61.0421470  79.0255090  63.2970190  58.6156800  83.1716290  53.8579600
  57.8419060  82.6313910  53.6978320  59.3451430  82.6522900  53.5197360
  69.3744780  82.1681650  59.6505990  70.0943900  82.6636940  59.2602100
  69.1726600  81.4899540  59.0059860  64.8354720  73.5619610  53.7935380
  64.0219330  73.0632780  53.7180690  64.6416670  74.4017860  53.3771730
  64.7563580  82.2390710  65.5374990  64.6900890  81.3186380  65.2832580
  64.1268720  82.3366150  66.2519630  67.5503110  77.9339260  52.0897540
  68.4382730  78.2456490  51.9148880  67.5208200  77.0611510  51.6978120
  58.6594200  82.8396670  57.4958410  59.1772870  82.0364930  57.4415300
  58.2078220  82.7775810  58.3375240  56.1438740  79.8058040  64.4084110
  55.7853680  80.4711890  64.9957450  55.8493300  78.9741590  64.7796730
  59.3451860  80.2642280  67.2923660  59.0452000  80.4099460  66.3951480
  60.1163100  79.7047570  67.1997050  69.8217380  79.2451100  51.5577400
  69.7381100  79.6765320  50.7073840  70.5411570  79.7049450  51.9904220
  70.8991520  81.7018620  64.6347370  70.1739710  82.2947400  64.4376760
  71.4266980  81.6942160  63.8360740  66.4291110  83.4278790  58.1331220
  66.7814930  82.8306920  57.4732590  65.5453440  83.1023020  58.3039470
  54.6546790  79.8049300  51.0318710  55.5241640  80.0874100  51.3154630
  54.1637110  80.6185170  50.9167520  61.8181600  81.1922510  55.1526990
  62.2744380  82.0027760  55.3787180  61.4669810  80.8745650  55.9845480
  57.7193380  71.5360160  55.6249510  57.5908010  71.5278060  56.5734430
  56.8955400  71.8743250  55.2740520  54.7187310  73.2951280  65.0856210
  54.0045830  73.4948200  65.6908820  55.1382350  72.5190850  65.4571010
  68.8218260  82.9081760  52.4850040  68.5339960  83.3694450  53.2727920
  69.6170430  82.4479530  52.7534260  56.6393300  81.6222770  53.1600770
  56.0321250  82.3621670  53.1696070  57.1142650  81.7122130  52.3338970
  66.2126090  75.7873590  62.8357660  66.5806910  74.9668800  63.1637230
  65.3524290  75.8475480  63.2513310  69.5788120  74.7430530  53.6445220
  68.9501280  74.8476200  52.9303450  69.0840040  74.9627310  54.4339100
  61.5472150  77.0216480  55.0603100  60.8388300  77.4902820  55.5016710
  61.8316630  76.3638490  55.6948290  63.1728080  78.4413180  63.0595630
  63.6713330  78.9159000  63.7247480  63.3151030  77.5176700  63.2665660
  65.5787580  73.7467140  56.4998890  65.4555360  73.7653270  55.5508400
  66.5272140  73.7946080  56.6197290  59.7507170  75.3301560  52.4353810
  60.5997700  75.7671710  52.3694000  59.3838440  75.6421820  53.2625870
  70.3794940  74.6581140  63.9024020  69.8768540  75.3986540  64.2417830
  71.1951600  75.0465140  63.5860810  68.6716950  79.9014320  57.3485380
  67.7307090  79.9164550  57.5233070  68.9861020  79.1150280  57.7945680
  58.6498590  81.5833920  50.9089340  59.4161860  81.4715280  51.4714770
  58.7273280  80.8871890  50.2566110  57.3445350  79.0158990  51.5922230
  57.4248940  78.0686500  51.7039630  58.2365100  79.3465870  51.6982890
  54.8716150  80.8373910  66.8278400  55.3755170  80.2581190  67.3994630
  54.1323570  81.1214140  67.3654770  61.7739770  83.5588100  50.3824690
  61.6690410  82.9440450  51.1086070  61.6063990  83.0353990  49.5987700
  61.9254090  82.2444900  66.3613920  61.1599760  82.8129900  66.2768590
  62.1070050  81.9521110  65.4682150  65.0142500  82.6208130  50.9866680
  64.4652600  83.0677430  51.6309420  65.6361760  82.1157380  51.5104350
  56.9039230  78.9803500  67.7228470  56.9444570  78.6817370  68.6313700
  57.7584730  79.3811110  67.5635990  60.6817620  81.5799050  52.8831980
  61.1034040  81.4138920  53.7263370  60.8068460  80.7699280  52.3887120
  58.8445040  77.5595600  65.6902960  58.3141500  77.0686550  65.0626300
  59.5133110  77.9879800  65.1560890  63.1945260  80.6036660  50.1309080
  63.7150920  79.8885680  49.7650230  63.8413660  81.2422530  50.4309590
  67.7423100  82.0265060  65.4544150  68.1564120  82.1810140  66.3034570
  66.8074100  82.1520280  65.6169930  68.2145270  79.3661220  67.4583300
  68.7966040  78.6113540  67.3703780  68.3907040  79.8968660  66.6814780
  59.3317340  74.5257970  65.7700250  59.2374210  73.9078720  65.0451120
  58.7514730  75.2524260  65.5430160  62.0978780  73.0831210  62.8027640
  61.6496080  73.1055470  61.9573190  61.4643980  72.6850230  63.3997940
  62.5038330  81.9785540  63.4240080  62.9226440  82.8218270  63.2516320
  61.5846960  82.1157580  63.1946860  64.8402230  79.7101720  64.8077920
  64.9598440  79.1142860  65.5472760  65.6996230  79.7471410  64.3879220
  67.1790130  80.2638910  63.3840430  66.6525350  80.7881530  62.7805570
  67.5221470  80.8966300  64.0150160  59.5776520  77.6532280  49.8290140
  59.3765580  76.7899640  50.1903480  59.4068570  77.5665640  48.8911740
  61.6071000  76.2523070  66.0653740  62.1970690  75.9438920  66.7531560
  60.7891240  75.7802820  66.2213640  66.4264430  75.8688880  66.2986760
  65.7379950  75.2070420  66.2336750  67.1470450  75.4227150  66.7435220
  67.0564830  72.4640510  52.3577020  67.3367120  71.6208410  52.7136440
  66.2830560  72.6963620  52.8715770  58.3759320  74.7532900  49.8168020
  58.6785220  74.7600330  48.9087170  59.1153910  74.4030760  50.3135680
  61.5944250  73.6967520  50.8024220  61.2466250  73.0191510  50.2226670
  61.7957020  73.2357030  51.6167610  71.4345550  81.7017240  52.9680930
  72.1964460  82.2713890  53.0740620  71.4499920  81.1344440  53.7389240
  54.9349890  80.2255170  57.1988590  54.2798730  79.9566810  56.5548290
  55.7727840  80.1159650  56.7490570  72.4405520  82.5567340  57.8122860
  72.8114350  81.7734660  57.4058830  73.0807450  83.2456440  57.6340160
  71.4864720  81.9951610  50.1253450  71.7613560  82.9030490  49.9972670
  71.2975460  81.9314140  51.0615440  67.8840330  75.0196460  51.4207080
  68.3025210  74.8327440  50.5803740  67.5776390  74.1675510  51.7310010
  71.3830060  79.9320600  55.1182880  71.0073660  79.1648530  54.6864170
  70.6533180  80.3143300  55.6057810  55.9725820  80.6107740  61.7391930
  56.3398860  80.5235140  62.6187950  55.4036640  79.8474290  61.6398790
  70.7729680  79.0792120  64.7522400  70.5415770  78.8504870  63.8520350
  71.0334230  79.9991670  64.7067290  55.5241820  77.5216830  65.6450350
  54.6297870  77.4883590  65.9844060  56.0639370  77.7203620  66.4101600
  69.2117750  74.3048550  67.5302100  70.0887930  74.3131950  67.9136100
  69.2238590  73.5679390  66.9194450  54.1487970  77.4354100  53.1413920
  53.2452050  77.6984300  52.9665580  54.6328590  77.7065270  52.3613880
  70.6581020  78.1578090  58.4190120  71.1818500  77.6640740  57.7880290
  71.2440440  78.2928450  59.1637690  70.8370740  78.2417960  61.9409670
  69.8873450  78.2081500  62.0554660  71.0183750  79.1518070  61.7059440
  56.6915180  76.4919640  51.0508300  57.4006880  76.0702860  50.5655580
  55.9755120  76.5594870  50.4191650  56.3389340  72.5458970  50.0910950
  57.0617470  73.0867910  50.4092170  56.6113860  72.2722390  49.2152490
  70.1480990  77.4151440  54.3582530  70.6440110  77.1822310  55.1431410
  69.9497060  76.5763280  53.9420170  56.0281530  71.7965160  59.9933570
  56.6757720  71.2462540  59.5528730  56.4483370  72.0508310  60.8149380
  71.5768150  76.0512390  56.8920210  71.4667430  75.8968430  57.8302480
  72.3375740  75.5233330  56.6495620  69.9233870  71.9906520  63.3503210
  70.5606090  72.6040660  63.7162400  70.0708760  72.0267180  62.4052440
  72.4658420  73.8820310  50.1326350  73.3907730  73.7501490  49.9244640
  72.4434210  73.9613130  51.0862800  72.5396910  74.6530970  52.7583060
  71.7448410  74.5876090  53.2875970  72.7440190  75.5881610  52.7468410
  55.7813530  71.9520830  62.7358890  55.4328350  72.4084650  63.5017070
  55.4501230  71.0577960  62.8181320  63.2938350  73.1432710  66.2578310
  63.2327240  73.7354540  67.0073720  64.2338730  73.0358670  66.1128570
  65.9312910  72.8002770  65.8970600  66.5453320  73.1182060  65.2351680
  66.4762470  72.3151360  66.5166460  56.4534170  71.4797030  66.0109660
  57.0017160  71.2985080  65.2475770  56.5189480  70.6891140  66.5465970
  66.6720950  71.3634910  62.2239890  65.7980790  71.6970020  62.0212820
  66.5631700  70.8908090  63.0491760  67.5792930  73.5705780  63.6081610
  67.2506290  72.7557540  63.2283340  68.5275230  73.5275590  63.4847300
  64.4195770  72.2804750  61.1632800  63.6367560  72.7550250  61.4429560
  64.1258700  71.3759580  61.0545980  68.9716840  72.9827850  59.2081890
  69.4124930  72.9272950  58.3603490  68.7024430  73.8985860  59.2792070
  70.8355410  72.6143090  57.2190710  70.7743810  71.6704310  57.0721730
  71.6147440  72.7223180  57.7644170  55.7636180  72.5852230  53.6846520
  56.5215540  72.6981110  53.1110550  55.3013350  73.4221430  53.6389950
  62.3049990  74.6991500  56.6748830  61.4924500  74.3248390  56.3344710
  62.8091630  73.9436580  56.9770020  66.8074970  71.3633950  57.9131900
  67.4104340  71.9354160  58.3880420  66.0667960  71.9273390  57.6905800
  69.9509570  71.7655510  53.1872180  70.1460200  72.6638960  53.4539610
  69.1639440  71.5342590  53.6805130  58.1361330  73.1116280  52.2248490
  58.6654090  72.3246080  52.0956440  58.7689650  73.7907470  52.4584020
  60.3299170  72.8491420  55.2793880  59.7001910  72.1478730  55.4464010
  59.7904310  73.6095550  55.0627040  60.4554730  72.1275400  67.7146370
  60.1739000  72.6309000  66.9507190  60.8374430  71.3297150  67.3488500
  67.0570190  71.5428980  68.2926840  66.9435640  71.8623590  69.1878360
  67.8739930  71.9441490  67.9964120  65.9628340  79.5621450  38.6561580
  65.8822390  78.6476060  38.3853290  65.5492760  80.0588520  37.9501290
  64.0946380  81.3400470  40.5370850  63.3188480  80.8600910  40.8269420
  64.7459310  80.6606120  40.3627010  58.1112210  81.6520280  41.4146610
  57.2797090  81.3968990  41.8143120  58.7193190  81.7231050  42.1504530
  56.5204160  76.6122170  35.1989000  55.6320860  76.9538140  35.0968880
  56.8045350  76.4122490  34.3069830  54.4837170  79.2127820  41.0828700
  55.0553280  78.4450020  41.0832340  54.4838710  79.5116580  40.1735310
  63.5355370  84.0157660  40.5441010  63.4663650  83.0747600  40.3830140
  64.2975230  84.1059070  41.1163580  55.7262040  74.6212180  42.8697630
  55.5464880  73.7237930  43.1500390  55.3242120  75.1684050  43.5444580
  64.5660540  76.8228040  40.7709940  64.9425360  75.9499920  40.6583610
  64.4680050  77.1586740  39.8800380  58.6965550  75.1953670  36.2327380
  58.8032300  76.0957400  36.5396140  57.7857910  75.1471640  35.9422030
  68.3484660  74.3178480  37.7038280  69.1694280  73.8275050  37.7463760
  68.3818740  74.9076140  38.4570120  56.3448710  77.1172680  41.4779970
  57.0258820  77.3811050  42.0967370  56.0296760  76.2773550  41.8117980
  60.5373280  78.1640040  40.5652560  61.0451500  78.6621010  41.2057580
  61.0686520  77.3875240  40.3891920  72.6384210  76.3345230  44.2681910
  71.9336380  76.7226940  43.7497020  72.9042130  77.0295520  44.8702840
  58.8209380  72.8038600  44.8315980  58.8227820  73.3210990  44.0261880
  57.9913690  72.3268780  44.8085910  65.2080470  82.9157910  36.3305880
  64.5897740  83.3807360  35.7668600  65.7203720  83.6085390  36.7475390
  60.0712230  82.4433780  43.0089480  59.7381610  83.0702700  43.6510550
  60.2478910  82.9695660  42.2291150  68.5846140  76.2578860  40.4765820
  67.8801710  76.5463750  41.0568930  68.9458300  77.0678970  40.1165380
  58.5024710  74.5148560  42.8386430  58.8441520  75.3590610  42.5440300
  57.5640520  74.6632300  42.9551770  71.6533060  75.7033650  40.8675030
  70.7057970  75.7372630  40.9990460  71.9783050  76.5172600  41.2524390
  62.1852600  72.0030830  39.1631020  62.4927580  71.4477720  38.4466520
  61.2553300  72.1375290  38.9804010  67.1353100  82.6227960  42.7821090
  67.5521890  82.4088070  41.9474550  67.8592920  82.8800750  43.3529710
  64.5733360  80.0679660  35.8991140  63.6462640  80.0017040  36.1279610
  64.7258180  81.0059790  35.7846380  64.5602440  76.3396660  32.8958300
  63.6206110  76.5010620  32.9810760  64.8785700  77.0582340  32.3494290
  71.0815200  81.0215180  42.8737330  70.2533830  81.0908270  42.3987460
  71.6765680  81.6069490  42.4053160  68.6030650  81.6299960  36.4026390
  67.9843070  81.2919510  35.7552690  68.5855100  80.9859720  37.1105580
  68.0457210  77.8084500  43.8192200  67.6328390  78.6338210  44.0732190
  67.3133160  77.2229540  43.6268560  60.1790000  80.5944400  38.6810870
  59.7747000  79.8821650  38.1856770  60.2653120  80.2497640  39.5698910
  58.8918620  77.3687610  42.4609910  59.4433210  77.4782950  41.6863160
  59.4062130  77.7425210  43.1765140  66.7795350  80.8686770  33.4099140
  67.2188630  80.0309200  33.2636960  67.4923770  81.5016170  33.4963280
  58.5661350  80.8906970  46.0715250  58.4269120  81.7629770  46.4402650
  57.6842710  80.5479780  45.9263190  70.3612490  72.1229580  31.7240180
  70.0485150  72.2156410  32.6239250  71.1224960  72.7010610  31.6737610
  56.8794630  79.4889380  36.1817520  56.7592230  80.2151470  35.5698790
  56.5695520  78.7192290  35.7045430  54.5180000  82.6604520  41.9886160
  54.5960420  82.7953290  41.0441880  55.1321680  81.9520410  42.1814280
  71.5713780  76.8601080  47.7014320  70.9558050  77.3680750  47.1729780
  71.2510200  75.9599410  47.6440260  54.5739520  83.7018690  44.5280620
  54.7370560  83.2324050  43.7099990  55.0391970  83.1942250  45.1929460
  59.3458290  72.8324450  39.5641190  58.9026440  73.6133990  39.2325710
  59.9043280  73.1554340  40.2712130  63.6328100  75.6992970  45.1676510
  63.1707470  75.9075990  45.9796450  63.2306210  74.8852320  44.8647180
  68.6332610  76.9201920  46.2973170  67.7826200  76.6207670  46.6182240
  68.4734400  77.1643930  45.3856990  65.7282320  78.4203670  48.3971960
  66.0535730  77.5867420  48.0574190  66.5162650  78.9432190  48.5450290
  62.4617110  72.4535150  34.4447020  61.8371290  72.4495020  35.1700330
  62.3747230  71.5866110  34.0482990  61.3834190  73.3771780  41.4230790
  61.6806520  74.2834610  41.3422810  61.9319750  72.8890560  40.8090360
  59.1372510  77.9558020  37.2922440  58.9113430  77.7395190  38.1969060
  58.3565040  78.3886480  36.9468410  66.3670270  77.9621390  35.8913090
  65.7679160  78.6857190  35.7076710  66.9149880  77.8998170  35.1089540
  61.5771720  78.8543600  47.9582710  61.4815320  77.9138330  47.8083110
  62.4203700  79.0758670  47.5630780  64.9735140  76.5984930  37.9216370
  65.3664710  76.9157130  37.1085060  65.3351990  75.7196810  38.0360890
  56.7082260  75.2657270  46.1116490  56.3145650  76.1132480  46.3189270
  56.0200660  74.6283640  46.3025130  63.2827310  75.3492240  49.1813230
  62.5925630  75.1564440  49.8159320  64.0259610  75.6326880  49.7137530
  54.0099310  73.1885730  40.1446570  53.7212360  73.7588590  40.8571550
  54.7545070  72.7090180  40.5077800  54.1969540  77.1305850  31.3549290
  54.1144210  78.0736610  31.4964280  53.8452600  76.9880760  30.4761640
  65.5590280  79.1890680  42.0167150  64.8271400  79.6977490  42.3657250
  65.1614620  78.3720660  41.7155930  61.9967670  75.8644880  40.4219640
  62.0003730  75.4234830  39.5724180  62.8918790  76.1862210  40.5291460
  57.8470050  75.7471370  39.3813850  57.5070100  76.2246600  40.1380900
  57.0847370  75.2936490  39.0214950  62.0587820  76.8656960  33.4126400
  62.1800640  76.8243440  34.3612220  61.6736330  77.7281110  33.2573130
  66.0216190  74.6424360  41.4290090  66.0388930  75.0933010  42.2731940
  65.7731770  73.7430000  41.6423530  61.0709320  79.1758100  32.8109700
  60.5026220  78.7276350  32.1845610  61.7798320  79.5350880  32.2774850
  69.4486940  72.0556540  47.2676470  69.7732710  71.3246200  47.7934450
  69.4843450  71.7370180  46.3657460  56.1478500  83.0770120  46.6876430
  55.7633290  82.4363790  47.2859390  56.4590690  83.7806240  47.2571160
  62.2975640  79.9246660  42.1685050  62.6645770  79.4505230  42.9146390
  62.1080700  80.7988230  42.5093390  55.1616130  74.6690350  38.2978520
  54.8763050  74.3046020  39.1357140  55.0994990  73.9370810  37.6841660
  60.0875010  78.9655300  44.4869260  59.7832080  79.8447280  44.7119620
  61.0421470  79.0255090  44.5226700  58.6156800  83.1716290  35.0836110
  57.8419060  82.6313910  34.9234830  59.3451430  82.6522900  34.7453870
  69.3744780  82.1681650  40.8762500  70.0943900  82.6636940  40.4858610
  69.1726600  81.4899540  40.2316370  64.8354720  73.5619610  35.0191890
  64.0219330  73.0632780  34.9437200  64.6416670  74.4017860  34.6028240
  64.7563580  82.2390710  46.7631500  64.6900890  81.3186380  46.5089090
  64.1268720  82.3366150  47.4776140  67.5503110  77.9339260  33.3154050
  68.4382730  78.2456490  33.1405390  67.5208200  77.0611510  32.9234630
  58.6594200  82.8396670  38.7214920  59.1772870  82.0364930  38.6671810
  58.2078220  82.7775810  39.5631750  56.1438740  79.8058040  45.6340620
  55.7853680  80.4711890  46.2213960  55.8493300  78.9741590  46.0053240
  59.3451860  80.2642280  48.5180170  59.0452000  80.4099460  47.6207990
  60.1163100  79.7047570  48.4253560  69.8217380  79.2451100  32.7833910
  69.7381100  79.6765320  31.9330350  70.5411570  79.7049450  33.2160730
  70.8991520  81.7018620  45.8603880  70.1739710  82.2947400  45.6633270
  71.4266980  81.6942160  45.0617250  66.4291110  83.4278790  39.3587730
  66.7814930  82.8306920  38.6989100  65.5453440  83.1023020  39.5295980
  54.6546790  79.8049300  32.2575220  55.5241640  80.0874100  32.5411140
  54.1637110  80.6185170  32.1424030  61.8181600  81.1922510  36.3783500
  62.2744380  82.0027760  36.6043690  61.4669810  80.8745650  37.2101990
  57.7193380  71.5360160  36.8506020  57.5908010  71.5278060  37.7990940
  56.8955400  71.8743250  36.4997030  54.7187310  73.2951280  46.3112720
  54.0045830  73.4948200  46.9165330  55.1382350  72.5190850  46.6827520
  68.8218260  82.9081760  33.7106550  68.5339960  83.3694450  34.4984430
  69.6170430  82.4479530  33.9790770  56.6393300  81.6222770  34.3857280
  56.0321250  82.3621670  34.3952580  57.1142650  81.7122130  33.5595480
  66.2126090  75.7873590  44.0614170  66.5806910  74.9668800  44.3893740
  65.3524290  75.8475480  44.4769820  69.5788120  74.7430530  34.8701730
  68.9501280  74.8476200  34.1559960  69.0840040  74.9627310  35.6595610
  61.5472150  77.0216480  36.2859610  60.8388300  77.4902820  36.7273220
  61.8316630  76.3638490  36.9204800  63.1728080  78.4413180  44.2852140
  63.6713330  78.9159000  44.9503990  63.3151030  77.5176700  44.4922170
  65.5787580  73.7467140  37.7255400  65.4555360  73.7653270  36.7764910
  66.5272140  73.7946080  37.8453800  59.7507170  75.3301560  33.6610320
  60.5997700  75.7671710  33.5950510  59.3838440  75.6421820  34.4882380
  70.3794940  74.6581140  45.1280530  69.8768540  75.3986540  45.4674340
  71.1951600  75.0465140  44.8117320  68.6716950  79.9014320  38.5741890
  67.7307090  79.9164550  38.7489580  68.9861020  79.1150280  39.0202190
  58.6498590  81.5833920  32.1345850  59.4161860  81.4715280  32.6971280
  58.7273280  80.8871890  31.4822620  57.3445350  79.0158990  32.8178740
  57.4248940  78.0686500  32.9296140  58.2365100  79.3465870  32.9239400
  54.8716150  80.8373910  48.0534910  55.3755170  80.2581190  48.6251140
  54.1323570  81.1214140  48.5911280  61.7739770  83.5588100  31.6081200
  61.6690410  82.9440450  32.3342580  61.6063990  83.0353990  30.8244210
  61.9254090  82.2444900  47.5870430  61.1599760  82.8129900  47.5025100
  62.1070050  81.9521110  46.6938660  65.0142500  82.6208130  32.2123190
  64.4652600  83.0677430  32.8565930  65.6361760  82.1157380  32.7360860
  56.9039230  78.9803500  48.9484980  56.9444570  78.6817370  49.8570210
  57.7584730  79.3811110  48.7892500  60.6817620  81.5799050  34.1088490
  61.1034040  81.4138920  34.9519880  60.8068460  80.7699280  33.6143630
  58.8445040  77.5595600  46.9159470  58.3141500  77.0686550  46.2882810
  59.5133110  77.9879800  46.3817400  63.1945260  80.6036660  31.3565590
  63.7150920  79.8885680  30.9906740  63.8413660  81.2422530  31.6566100
  67.7423100  82.0265060  46.6800660  68.1564120  82.1810140  47.5291080
  66.8074100  82.1520280  46.8426440  68.2145270  79.3661220  48.6839810
  68.7966040  78.6113540  48.5960290  68.3907040  79.8968660  47.9071290
  59.3317340  74.5257970  46.9956760  59.2374210  73.9078720  46.2707630
  58.7514730  75.2524260  46.7686670  62.0978780  73.0831210  44.0284150
  61.6496080  73.1055470  43.1829700  61.4643980  72.6850230  44.6254450
  62.5038330  81.9785540  44.6496590  62.9226440  82.8218270  44.4772830
  61.5846960  82.1157580  44.4203370  64.8402230  79.7101720  46.0334430
  64.9598440  79.1142860  46.7729270  65.6996230  79.7471410  45.6135730
  67.1790130  80.2638910  44.6096940  66.6525350  80.7881530  44.0062080
  67.5221470  80.8966300  45.2406670  59.5776520  77.6532280  31.0546650
  59.3765580  76.7899640  31.4159990  59.4068570  77.5665640  30.1168250
  61.6071000  76.2523070  47.2910250  62.1970690  75.9438920  47.9788070
  60.7891240  75.7802820  47.4470150  66.4264430  75.8688880  47.5243270
  65.7379950  75.2070420  47.4593260  67.1470450  75.4227150  47.9691730
  67.0564830  72.4640510  33.5833530  67.3367120  71.6208410  33.9392950
  66.2830560  72.6963620  34.0972280  58.3759320  74.7532900  31.0424530
  58.6785220  74.7600330  30.1343680  59.1153910  74.4030760  31.5392190
  61.5944250  73.6967520  32.0280730  61.2466250  73.0191510  31.4483180
  61.7957020  73.2357030  32.8424120  71.4345550  81.7017240  34.1937440
  72.1964460  82.2713890  34.2997130  71.4499920  81.1344440  34.9645750
  54.9349890  80.2255170  38.4245100  54.2798730  79.9566810  37.7804800
  55.7727840  80.1159650  37.9747080  72.4405520  82.5567340  39.0379370
  72.8114350  81.7734660  38.6315340  73.0807450  83.2456440  38.8596670
  71.4864720  81.9951610  31.3509960  71.7613560  82.9030490  31.2229180
  71.2975460  81.9314140  32.2871950  67.8840330  75.0196460  32.6463590
  68.3025210  74.8327440  31.8060250  67.5776390  74.1675510  32.9566520
  71.3830060  79.9320600  36.3439390  71.0073660  79.1648530  35.9120680
  70.6533180  80.3143300  36.8314320  55.9725820  80.6107740  42.9648440
  56.3398860  80.5235140  43.8444460  55.4036640  79.8474290  42.8655300
  70.7729680  79.0792120  45.9778910  70.5415770  78.8504870  45.0776860
  71.0334230  79.9991670  45.9323800  55.5241820  77.5216830  46.8706860
  54.6297870  77.4883590  47.2100570  56.0639370  77.7203620  47.6358110
  69.2117750  74.3048550  48.7558610  70.0887930  74.3131950  49.1392610
  69.2238590  73.5679390  48.1450960  54.1487970  77.4354100  34.3670430
  53.2452050  77.6984300  34.1922090  54.6328590  77.7065270  33.5870390
  70.6581020  78.1578090  39.6446630  71.1818500  77.6640740  39.0136800
  71.2440440  78.2928450  40.3894200  70.8370740  78.2417960  43.1666180
  69.8873450  78.2081500  43.2811170  71.0183750  79.1518070  42.9315950
  56.6915180  76.4919640  32.2764810  57.4006880  76.0702860  31.7912090
  55.9755120  76.5594870  31.6448160  56.3389340  72.5458970  31.3167460
  57.0617470  73.0867910  31.6348680  56.6113860  72.2722390  30.4409000
  70.1480990  77.4151440  35.5839040  70.6440110  77.1822310  36.3687920
  69.9497060  76.5763280  35.1676680  56.0281530  71.7965160  41.2190080
  56.6757720  71.2462540  40.7785240  56.4483370  72.0508310  42.0405890
  71.5768150  76.0512390  38.1176720  71.4667430  75.8968430  39.0558990
  72.3375740  75.5233330  37.8752130  69.9233870  71.9906520  44.5759720
  70.5606090  72.6040660  44.9418910  70.0708760  72.0267180  43.6308950
  72.4658420  73.8820310  31.3582860  73.3907730  73.7501490  31.1501150
  72.4434210  73.9613130  32.3119310  72.5396910  74.6530970  33.9839570
  71.7448410  74.5876090  34.5132480  72.7440190  75.5881610  33.9724920
  55.7813530  71.9520830  43.9615400  55.4328350  72.4084650  44.7273580
  55.4501230  71.0577960  44.0437830  63.2938350  73.1432710  47.4834820
  63.2327240  73.7354540  48.2330230  64.2338730  73.0358670  47.3385080
  65.9312910  72.8002770  47.1227110  66.5453320  73.1182060  46.4608190
  66.4762470  72.3151360  47.7422970  56.4534170  71.4797030  47.2366170
  57.0017160  71.2985080  46.4732280  56.5189480  70.6891140  47.7722480
  66.6720950  71.3634910  43.4496400  65.7980790  71.6970020  43.2469330
  66.5631700  70.8908090  44.2748270  67.5792930  73.5705780  44.8338120
  67.2506290  72.7557540  44.4539850  68.5275230  73.5275590  44.7103810
  64.4195770  72.2804750  42.3889310  63.6367560  72.7550250  42.6686070
  64.1258700  71.3759580  42.2802490  68.9716840  72.9827850  40.4338400
  69.4124930  72.9272950  39.5860000  68.7024430  73.8985860  40.5048580
  70.8355410  72.6143090  38.4447220  70.7743810  71.6704310  38.2978240
  71.6147440  72.7223180  38.9900680  55.7636180  72.5852230  34.9103030
  56.5215540  72.6981110  34.3367060  55.3013350  73.4221430  34.8646460
  62.3049990  74.6991500  37.9005340  61.4924500  74.3248390  37.5601220
  62.8091630  73.9436580  38.2026530  66.8074970  71.3633950  39.1388410
  67.4104340  71.9354160  39.6136930  66.0667960  71.9273390  38.9162310
  69.9509570  71.7655510  34.4128690  70.1460200  72.6638960  34.6796120
  69.1639440  71.5342590  34.9061640  58.1361330  73.1116280  33.4505000
  58.6654090  72.3246080  33.3212950  58.7689650  73.7907470  33.6840530
  60.3299170  72.8491420  36.5050390  59.7001910  72.1478730  36.6720520
  59.7904310  73.6095550  36.2883550  60.4554730  72.1275400  48.9402880
  60.1739000  72.6309000  48.1763700  60.8374430  71.3297150  48.5745010
  67.0570190  71.5428980  49.5183350  66.9435640  71.8623590  50.4134870
  67.8739930  71.9441490  49.2220630  65.9628340  79.5621450  19.8818090
  65.8822390  78.6476060  19.6109800  65.5492760  80.0588520  19.1757800
  64.0946380  81.3400470  21.7627360  63.3188480  80.8600910  22.0525930
  64.7459310  80.6606120  21.5883520  58.1112210  81.6520280  22.6403120
  57.2797090  81.3968990  23.0399630  58.7193190  81.7231050  23.3761040
  56.5204160  76.6122170  16.4245510  55.6320860  76.9538140  16.3225390
  56.8045350  76.4122490  15.5326340  54.4837170  79.2127820  22.3085210
  55.0553280  78.4450020  22.3088850  54.4838710  79.5116580  21.3991820
  63.5355370  84.0157660  21.7697520  63.4663650  83.0747600  21.6086650
  64.2975230  84.1059070  22.3420090  55.7262040  74.6212180  24.0954140
  55.5464880  73.7237930  24.3756900  55.3242120  75.1684050  24.7701090
  64.5660540  76.8228040  21.9966450  64.9425360  75.9499920  21.8840120
  64.4680050  77.1586740  21.1056890  58.6965550  75.1953670  17.4583890
  58.8032300  76.0957400  17.7652650  57.7857910  75.1471640  17.1678540
  68.3484660  74.3178480  18.9294790  69.1694280  73.8275050  18.9720270
  68.3818740  74.9076140  19.6826630  56.3448710  77.1172680  22.7036480
  57.0258820  77.3811050  23.3223880  56.0296760  76.2773550  23.0374490
  60.5373280  78.1640040  21.7909070  61.0451500  78.6621010  22.4314090
  61.0686520  77.3875240  21.6148430  72.6384210  76.3345230  25.4938420
  71.9336380  76.7226940  24.9753530  72.9042130  77.0295520  26.0959350
  58.8209380  72.8038600  26.0572490  58.8227820  73.3210990  25.2518390
  57.9913690  72.3268780  26.0342420  65.2080470  82.9157910  17.5562390
  64.5897740  83.3807360  16.9925110  65.7203720  83.6085390  17.9731900
  60.0712230  82.4433780  24.2345990  59.7381610  83.0702700  24.8767060
  60.2478910  82.9695660  23.4547660  68.5846140  76.2578860  21.7022330
  67.8801710  76.5463750  22.2825440  68.9458300  77.0678970  21.3421890
  58.5024710  74.5148560  24.0642940  58.8441520  75.3590610  23.7696810
  57.5640520  74.6632300  24.1808280  71.6533060  75.7033650  22.0931540
  70.7057970  75.7372630  22.2246970  71.9783050  76.5172600  22.4780900
  62.1852600  72.0030830  20.3887530  62.4927580  71.4477720  19.6723030
  61.2553300  72.1375290  20.2060520  67.1353100  82.6227960  24.0077600
  67.5521890  82.4088070  23.1731060  67.8592920  82.8800750  24.5786220
  64.5733360  80.0679660  17.1247650  63.6462640  80.0017040  17.3536120
  64.7258180  81.0059790  17.0102890  64.5602440  76.3396660  14.1214810
  63.6206110  76.5010620  14.2067270  64.8785700  77.0582340  13.5750800
  71.0815200  81.0215180  24.0993840  70.2533830  81.0908270  23.6243970
  71.6765680  81.6069490  23.6309670  68.6030650  81.6299960  17.6282900
  67.9843070  81.2919510  16.9809200  68.5855100  80.9859720  18.3362090
  68.0457210  77.8084500  25.0448710  67.6328390  78.6338210  25.2988700
  67.3133160  77.2229540  24.8525070  60.1790000  80.5944400  19.9067380
  59.7747000  79.8821650  19.4113280  60.2653120  80.2497640  20.7955420
  58.8918620  77.3687610  23.6866420  59.4433210  77.4782950  22.9119670
  59.4062130  77.7425210  24.4021650  66.7795350  80.8686770  14.6355650
  67.2188630  80.0309200  14.4893470  67.4923770  81.5016170  14.7219790
  58.5661350  80.8906970  27.2971760  58.4269120  81.7629770  27.6659160
  57.6842710  80.5479780  27.1519700  70.3612490  72.1229580  12.9496690
  70.0485150  72.2156410  13.8495760  71.1224960  72.7010610  12.8994120
  56.8794630  79.4889380  17.4074030  56.7592230  80.2151470  16.7955300
  56.5695520  78.7192290  16.9301940  54.5180000  82.6604520  23.2142670
  54.5960420  82.7953290  22.2698390  55.1321680  81.9520410  23.4070790
  71.5713780  76.8601080  28.9270830  70.9558050  77.3680750  28.3986290
  71.2510200  75.9599410  28.8696770  54.5739520  83.7018690  25.7537130
  54.7370560  83.2324050  24.9356500  55.0391970  83.1942250  26.4185970
  59.3458290  72.8324450  20.7897700  58.9026440  73.6133990  20.4582220
  59.9043280  73.1554340  21.4968640  63.6328100  75.6992970  26.3933020
  63.1707470  75.9075990  27.2052960  63.2306210  74.8852320  26.0903690
  68.6332610  76.9201920  27.5229680  67.7826200  76.6207670  27.8438750
  68.4734400  77.1643930  26.6113500  65.7282320  78.4203670  29.6228470
  66.0535730  77.5867420  29.2830700  66.5162650  78.9432190  29.7706800
  62.4617110  72.4535150  15.6703530  61.8371290  72.4495020  16.3956840
  62.3747230  71.5866110  15.2739500  61.3834190  73.3771780  22.6487300
  61.6806520  74.2834610  22.5679320  61.9319750  72.8890560  22.0346870
  59.1372510  77.9558020  18.5178950  58.9113430  77.7395190  19.4225570
  58.3565040  78.3886480  18.1724920  66.3670270  77.9621390  17.1169600
  65.7679160  78.6857190  16.9333220  66.9149880  77.8998170  16.3346050
  61.5771720  78.8543600  29.1839220  61.4815320  77.9138330  29.0339620
  62.4203700  79.0758670  28.7887290  64.9735140  76.5984930  19.1472880
  65.3664710  76.9157130  18.3341570  65.3351990  75.7196810  19.2617400
  56.7082260  75.2657270  27.3373000  56.3145650  76.1132480  27.5445780
  56.0200660  74.6283640  27.5281640  63.2827310  75.3492240  30.4069740
  62.5925630  75.1564440  31.0415830  64.0259610  75.6326880  30.9394040
  54.0099310  73.1885730  21.3703080  53.7212360  73.7588590  22.0828060
  54.7545070  72.7090180  21.7334310  54.1969540  77.1305850  12.5805800
  54.1144210  78.0736610  12.7220790  53.8452600  76.9880760  11.7018150
  65.5590280  79.1890680  23.2423660  64.8271400  79.6977490  23.5913760
  65.1614620  78.3720660  22.9412440  61.9967670  75.8644880  21.6476150
  62.0003730  75.4234830  20.7980690  62.8918790  76.1862210  21.7547970
  57.8470050  75.7471370  20.6070360  57.5070100  76.2246600  21.3637410
  57.0847370  75.2936490  20.2471460  62.0587820  76.8656960  14.6382910
  62.1800640  76.8243440  15.5868730  61.6736330  77.7281110  14.4829640
  66.0216190  74.6424360  22.6546600  66.0388930  75.0933010  23.4988450
  65.7731770  73.7430000  22.8680040  61.0709320  79.1758100  14.0366210
  60.5026220  78.7276350  13.4102120  61.7798320  79.5350880  13.5031360
  69.4486940  72.0556540  28.4932980  69.7732710  71.3246200  29.0190960
  69.4843450  71.7370180  27.5913970  56.1478500  83.0770120  27.9132940
  55.7633290  82.4363790  28.5115900  56.4590690  83.7806240  28.4827670
  62.2975640  79.9246660  23.3941560  62.6645770  79.4505230  24.1402900
  62.1080700  80.7988230  23.7349900  55.1616130  74.6690350  19.5235030
  54.8763050  74.3046020  20.3613650  55.0994990  73.9370810  18.9098170
  60.0875010  78.9655300  25.7125770  59.7832080  79.8447280  25.9376130
  61.0421470  79.0255090  25.7483210  58.6156800  83.1716290  16.3092620
  57.8419060  82.6313910  16.1491340  59.3451430  82.6522900  15.9710380
  69.3744780  82.1681650  22.1019010  70.0943900  82.6636940  21.7115120
  69.1726600  81.4899540  21.4572880  64.8354720  73.5619610  16.2448400
  64.0219330  73.0632780  16.1693710  64.6416670  74.4017860  15.8284750
  64.7563580  82.2390710  27.9888010  64.6900890  81.3186380  27.7345600
  64.1268720  82.3366150  28.7032650  67.5503110  77.9339260  14.5410560
  68.4382730  78.2456490  14.3661900  67.5208200  77.0611510  14.1491140
  58.6594200  82.8396670  19.9471430  59.1772870  82.0364930  19.8928320
  58.2078220  82.7775810  20.7888260  56.1438740  79.8058040  26.8597130
  55.7853680  80.4711890  27.4470470  55.8493300  78.9741590  27.2309750
  59.3451860  80.2642280  29.7436680  59.0452000  80.4099460  28.8464500
  60.1163100  79.7047570  29.6510070  69.8217380  79.2451100  14.0090420
  69.7381100  79.6765320  13.1586860  70.5411570  79.7049450  14.4417240
  70.8991520  81.7018620  27.0860390  70.1739710  82.2947400  26.8889780
  71.4266980  81.6942160  26.2873760  66.4291110  83.4278790  20.5844240
  66.7814930  82.8306920  19.9245610  65.5453440  83.1023020  20.7552490
  54.6546790  79.8049300  13.4831730  55.5241640  80.0874100  13.7667650
  54.1637110  80.6185170  13.3680540  61.8181600  81.1922510  17.6040010
  62.2744380  82.0027760  17.8300200  61.4669810  80.8745650  18.4358500
  57.7193380  71.5360160  18.0762530  57.5908010  71.5278060  19.0247450
  56.8955400  71.8743250  17.7253540  54.7187310  73.2951280  27.5369230
  54.0045830  73.4948200  28.1421840  55.1382350  72.5190850  27.9084030
  68.8218260  82.9081760  14.9363060  68.5339960  83.3694450  15.7240940
  69.6170430  82.4479530  15.2047280  56.6393300  81.6222770  15.6113790
  56.0321250  82.3621670  15.6209090  57.1142650  81.7122130  14.7851990
  66.2126090  75.7873590  25.2870680  66.5806910  74.9668800  25.6150250
  65.3524290  75.8475480  25.7026330  69.5788120  74.7430530  16.0958240
  68.9501280  74.8476200  15.3816470  69.0840040  74.9627310  16.8852120
  61.5472150  77.0216480  17.5116120  60.8388300  77.4902820  17.9529730
  61.8316630  76.3638490  18.1461310  63.1728080  78.4413180  25.5108650
  63.6713330  78.9159000  26.1760500  63.3151030  77.5176700  25.7178680
  65.5787580  73.7467140  18.9511910  65.4555360  73.7653270  18.0021420
  66.5272140  73.7946080  19.0710310  59.7507170  75.3301560  14.8866830
  60.5997700  75.7671710  14.8207020  59.3838440  75.6421820  15.7138890
  70.3794940  74.6581140  26.3537040  69.8768540  75.3986540  26.6930850
  71.1951600  75.0465140  26.0373830  68.6716950  79.9014320  19.7998400
  67.7307090  79.9164550  19.9746090  68.9861020  79.1150280  20.2458700
  58.6498590  81.5833920  13.3602360  59.4161860  81.4715280  13.9227790
  58.7273280  80.8871890  12.7079130  57.3445350  79.0158990  14.0435250
  57.4248940  78.0686500  14.1552650  58.2365100  79.3465870  14.1495910
  54.8716150  80.8373910  29.2791420  55.3755170  80.2581190  29.8507650
  54.1323570  81.1214140  29.8167790  61.7739770  83.5588100  12.8337710
  61.6690410  82.9440450  13.5599090  61.6063990  83.0353990  12.0500720
  61.9254090  82.2444900  28.8126940  61.1599760  82.8129900  28.7281610
  62.1070050  81.9521110  27.9195170  65.0142500  82.6208130  13.4379700
  64.4652600  83.0677430  14.0822440  65.6361760  82.1157380  13.9617370
  56.9039230  78.9803500  30.1741490  56.9444570  78.6817370  31.0826720
  57.7584730  79.3811110  30.0149010  60.6817620  81.5799050  15.3345000
  61.1034040  81.4138920  16.1776390  60.8068460  80.7699280  14.8400140
  58.8445040  77.5595600  28.1415980  58.3141500  77.0686550  27.5139320
  59.5133110  77.9879800  27.6073910  63.1945260  80.6036660  12.5822100
  63.7150920  79.8885680  12.2163250  63.8413660  81.2422530  12.8822610
  67.7423100  82.0265060  27.9057170  68.1564120  82.1810140  28.7547590
  66.8074100  82.1520280  28.0682950  68.2145270  79.3661220  29.9096320
  68.7966040  78.6113540  29.8216800  68.3907040  79.8968660  29.1327800
  59.3317340  74.5257970  28.2213270  59.2374210  73.9078720  27.4964140
  58.7514730  75.2524260  27.9943180  62.0978780  73.0831210  25.2540660
  61.6496080  73.1055470  24.4086210  61.4643980  72.6850230  25.8510960
  62.5038330  81.9785540  25.8753100  62.9226440  82.8218270  25.7029340
  61.5846960  82.1157580  25.6459880  64.8402230  79.7101720  27.2590940
  64.9598440  79.1142860  27.9985780  65.6996230  79.7471410  26.8392240
  67.1790130  80.2638910  25.8353450  66.6525350  80.7881530  25.2318590
  67.5221470  80.8966300  26.4663180  59.5776520  77.6532280  12.2803160
  59.3765580  76.7899640  12.6416500  59.4068570  77.5665640  11.3424760
  61.6071000  76.2523070  28.5166760  62.1970690  75.9438920  29.2044580
  60.7891240  75.7802820  28.6726660  66.4264430  75.8688880  28.7499780
  65.7379950  75.2070420  28.6849770  67.1470450  75.4227150  29.1948240
  67.0564830  72.4640510  14.8090040  67.3367120  71.6208410  15.1649460
  66.2830560  72.6963620  15.3228790  58.3759320  74.7532900  12.2681040
  58.6785220  74.7600330  11.3600190  59.1153910  74.4030760  12.7648700
  61.5944250  73.6967520  13.2537240  61.2466250  73.0191510  12.6739690
  61.7957020  73.2357030  14.0680630  71.4345550  81.7017240  15.4193950
  72.1964460  82.2713890  15.5253640  71.4499920  81.1344440  16.1902260
  54.9349890  80.2255170  19.6501610  54.2798730  79.9566810  19.0061310
  55.7727840  80.1159650  19.2003590  72.4405520  82.5567340  20.2635880
  72.8114350  81.7734660  19.8571850  73.0807450  83.2456440  20.0853180
  71.4864720  81.9951610  12.5766470  71.7613560  82.9030490  12.4485690
  71.2975460  81.9314140  13.5128460  67.8840330  75.0196460  13.8720100
  68.3025210  74.8327440  13.0316760  67.5776390  74.1675510  14.1823030
  71.3830060  79.9320600  17.5695900  71.0073660  79.1648530  17.1377190
  70.6533180  80.3143300  18.0570830  55.9725820  80.6107740  24.1904950
  56.3398860  80.5235140  25.0700970  55.4036640  79.8474290  24.0911810
  70.7729680  79.0792120  27.2035420  70.5415770  78.8504870  26.3033370
  71.0334230  79.9991670  27.1580310  55.5241820  77.5216830  28.0963370
  54.6297870  77.4883590  28.4357080  56.0639370  77.7203620  28.8614620
  69.2117750  74.3048550  29.9815120  70.0887930  74.3131950  30.3649120
  69.2238590  73.5679390  29.3707470  54.1487970  77.4354100  15.5926940
  53.2452050  77.6984300  15.4178600  54.6328590  77.7065270  14.8126900
  70.6581020  78.1578090  20.8703140  71.1818500  77.6640740  20.2393310
  71.2440440  78.2928450  21.6150710  70.8370740  78.2417960  24.3922690
  69.8873450  78.2081500  24.5067680  71.0183750  79.1518070  24.1572460
  56.6915180  76.4919640  13.5021320  57.4006880  76.0702860  13.0168600
  55.9755120  76.5594870  12.8704670  56.3389340  72.5458970  12.5423970
  57.0617470  73.0867910  12.8605190  56.6113860  72.2722390  11.6665510
  70.1480990  77.4151440  16.8095550  70.6440110  77.1822310  17.5944430
  69.9497060  76.5763280  16.3933190  56.0281530  71.7965160  22.4446590
  56.6757720  71.2462540  22.0041750  56.4483370  72.0508310  23.2662400
  71.5768150  76.0512390  19.3433230  71.4667430  75.8968430  20.2815500
  72.3375740  75.5233330  19.1008640  69.9233870  71.9906520  25.8016230
  70.5606090  72.6040660  26.1675420  70.0708760  72.0267180  24.8565460
  72.4658420  73.8820310  12.5839370  73.3907730  73.7501490  12.3757660
  72.4434210  73.9613130  13.5375820  72.5396910  74.6530970  15.2096080
  71.7448410  74.5876090  15.7388990  72.7440190  75.5881610  15.1981430
  55.7813530  71.9520830  25.1871910  55.4328350  72.4084650  25.9530090
  55.4501230  71.0577960  25.2694340  63.2938350  73.1432710  28.7091330
  63.2327240  73.7354540  29.4586740  64.2338730  73.0358670  28.5641590
  65.9312910  72.8002770  28.3483620  66.5453320  73.1182060  27.6864700
  66.4762470  72.3151360  28.9679480  56.4534170  71.4797030  28.4622680
  57.0017160  71.2985080  27.6988790  56.5189480  70.6891140  28.9978990
  66.6720950  71.3634910  24.6752910  65.7980790  71.6970020  24.4725840
  66.5631700  70.8908090  25.5004780  67.5792930  73.5705780  26.0594630
  67.2506290  72.7557540  25.6796360  68.5275230  73.5275590  25.9360320
  64.4195770  72.2804750  23.6145820  63.6367560  72.7550250  23.8942580
  64.1258700  71.3759580  23.5059000  68.9716840  72.9827850  21.6594910
  69.4124930  72.9272950  20.8116510  68.7024430  73.8985860  21.7305090
  70.8355410  72.6143090  19.6703730  70.7743810  71.6704310  19.5234750
  71.6147440  72.7223180  20.2157190  55.7636180  72.5852230  16.1359540
  56.5215540  72.6981110  15.5623570  55.3013350  73.4221430  16.0902970
  62.3049990  74.6991500  19.1261850  61.4924500  74.3248390  18.7857730
  62.8091630  73.9436580  19.4283040  66.8074970  71.3633950  20.3644920
  67.4104340  71.9354160  20.8393440  66.0667960  71.9273390  20.1418820
  69.9509570  71.7655510  15.6385200  70.1460200  72.6638960  15.9052630
  69.1639440  71.5342590  16.1318150  58.1361330  73.1116280  14.6761510
  58.6654090  72.3246080  14.5469460  58.7689650  73.7907470  14.9097040
  60.3299170  72.8491420  17.7306900  59.7001910  72.1478730  17.8977030
  59.7904310  73.6095550  17.5140060  60.4554730  72.1275400  30.1659390
  60.1739000  72.6309000  29.4020210  60.8374430  71.3297150  29.8001520
  67.0570190  71.5428980  30.7439860  66.9435640  71.8623590  31.6391380
  67.8739930  71.9441490  30.4477140  64.0946380  81.3400470   2.9883870
  63.3188480  80.8600910   3.2782440  64.7459310  80.6606120   2.8140030
  58.1112210  81.6520280   3.8659630  57.2797090  81.3968990   4.2656140
  58.7193190  81.7231050   4.6017550  54.4837170  79.2127820   3.5341720
  55.0553280  78.4450020   3.5345360  54.4838710  79.5116580   2.6248330
  63.5355370  84.0157660   2.9954030  63.4663650  83.0747600   2.8343160
  64.2975230  84.1059070   3.5676600  55.7262040  74.6212180   5.3210650
  55.5464880  73.7237930   5.6013410  55.3242120  75.1684050   5.9957600
  64.5660540  76.8228040   3.2222960  64.9425360  75.9499920   3.1096630
  64.4680050  77.1586740   2.3313400  56.3448710  77.1172680   3.9292990
  57.0258820  77.3811050   4.5480390  56.0296760  76.2773550   4.2631000
  60.5373280  78.1640040   3.0165580  61.0451500  78.6621010   3.6570600
  61.0686520  77.3875240   2.8404940  72.6384210  76.3345230   6.7194930
  71.9336380  76.7226940   6.2010040  72.9042130  77.0295520   7.3215860
  58.8209380  72.8038600   7.2829000  58.8227820  73.3210990   6.4774900
  57.9913690  72.3268780   7.2598930  60.0712230  82.4433780   5.4602500
  59.7381610  83.0702700   6.1023570  60.2478910  82.9695660   4.6804170
  68.5846140  76.2578860   2.9278840  67.8801710  76.5463750   3.5081950
  68.9458300  77.0678970   2.5678400  58.5024710  74.5148560   5.2899450
  58.8441520  75.3590610   4.9953320  57.5640520  74.6632300   5.4064790
  71.6533060  75.7033650   3.3188050  70.7057970  75.7372630   3.4503480
  71.9783050  76.5172600   3.7037410  67.1353100  82.6227960   5.2334110
  67.5521890  82.4088070   4.3987570  67.8592920  82.8800750   5.8042730
  71.0815200  81.0215180   5.3250350  70.2533830  81.0908270   4.8500480
  71.6765680  81.6069490   4.8566180  68.0457210  77.8084500   6.2705220
  67.6328390  78.6338210   6.5245210  67.3133160  77.2229540   6.0781580
  58.8918620  77.3687610   4.9122930  59.4433210  77.4782950   4.1376180
  59.4062130  77.7425210   5.6278160  58.5661350  80.8906970   8.5228270
  58.4269120  81.7629770   8.8915670  57.6842710  80.5479780   8.3776210
  54.5180000  82.6604520   4.4399180  54.5960420  82.7953290   3.4954900
  55.1321680  81.9520410   4.6327300  71.5713780  76.8601080  10.1527340
  70.9558050  77.3680750   9.6242800  71.2510200  75.9599410  10.0953280
  54.5739520  83.7018690   6.9793640  54.7370560  83.2324050   6.1613010
  55.0391970  83.1942250   7.6442480  59.3458290  72.8324450   2.0154210
  58.9026440  73.6133990   1.6838730  59.9043280  73.1554340   2.7225150
  63.6328100  75.6992970   7.6189530  63.1707470  75.9075990   8.4309470
  63.2306210  74.8852320   7.3160200  68.6332610  76.9201920   8.7486190
  67.7826200  76.6207670   9.0695260  68.4734400  77.1643930   7.8370010
  65.7282320  78.4203670  10.8484980  66.0535730  77.5867420  10.5087210
  66.5162650  78.9432190  10.9963310  61.3834190  73.3771780   3.8743810
  61.6806520  74.2834610   3.7935830  61.9319750  72.8890560   3.2603380
  61.5771720  78.8543600  10.4095730  61.4815320  77.9138330  10.2596130
  62.4203700  79.0758670  10.0143800  56.7082260  75.2657270   8.5629510
  56.3145650  76.1132480   8.7702290  56.0200660  74.6283640   8.7538150
  63.2827310  75.3492240  11.6326250  62.5925630  75.1564440  12.2672340
  64.0259610  75.6326880  12.1650550  54.0099310  73.1885730   2.5959590
  53.7212360  73.7588590   3.3084570  54.7545070  72.7090180   2.9590820
  65.5590280  79.1890680   4.4680170  64.8271400  79.6977490   4.8170270
  65.1614620  78.3720660   4.1668950  61.9967670  75.8644880   2.8732660
  62.0003730  75.4234830   2.0237200  62.8918790  76.1862210   2.9804480
  66.0216190  74.6424360   3.8803110  66.0388930  75.0933010   4.7244960
  65.7731770  73.7430000   4.0936550  69.4486940  72.0556540   9.7189490
  69.7732710  71.3246200  10.2447470  69.4843450  71.7370180   8.8170480
  56.1478500  83.0770120   9.1389450  55.7633290  82.4363790   9.7372410
  56.4590690  83.7806240   9.7084180  62.2975640  79.9246660   4.6198070
  62.6645770  79.4505230   5.3659410  62.1080700  80.7988230   4.9606410
  60.0875010  78.9655300   6.9382280  59.7832080  79.8447280   7.1632640
  61.0421470  79.0255090   6.9739720  69.3744780  82.1681650   3.3275520
  70.0943900  82.6636940   2.9371630  69.1726600  81.4899540   2.6829390
  64.7563580  82.2390710   9.2144520  64.6900890  81.3186380   8.9602110
  64.1268720  82.3366150   9.9289160  56.1438740  79.8058040   8.0853640
  55.7853680  80.4711890   8.6726980  55.8493300  78.9741590   8.4566260
  59.3451860  80.2642280  10.9693190  59.0452000  80.4099460  10.0721010
  60.1163100  79.7047570  10.8766580  70.8991520  81.7018620   8.3116900
  70.1739710  82.2947400   8.1146290  71.4266980  81.6942160   7.5130270
  54.7187310  73.2951280   8.7625740  54.0045830  73.4948200   9.3678350
  55.1382350  72.5190850   9.1340540  66.2126090  75.7873590   6.5127190
  66.5806910  74.9668800   6.8406760  65.3524290  75.8475480   6.9282840
  63.1728080  78.4413180   6.7365160  63.6713330  78.9159000   7.4017010
  63.3151030  77.5176700   6.9435190  70.3794940  74.6581140   7.5793550
  69.8768540  75.3986540   7.9187360  71.1951600  75.0465140   7.2630340
  54.8716150  80.8373910  10.5047930  55.3755170  80.2581190  11.0764160
  54.1323570  81.1214140  11.0424300  61.9254090  82.2444900  10.0383450
  61.1599760  82.8129900   9.9538120  62.1070050  81.9521110   9.1451680
  56.9039230  78.9803500  11.3998000  56.9444570  78.6817370  12.3083230
  57.7584730  79.3811110  11.2405520  58.8445040  77.5595600   9.3672490
  58.3141500  77.0686550   8.7395830  59.5133110  77.9879800   8.8330420
  67.7423100  82.0265060   9.1313680  68.1564120  82.1810140   9.9804100
  66.8074100  82.1520280   9.2939460  68.2145270  79.3661220  11.1352830
  68.7966040  78.6113540  11.0473310  68.3907040  79.8968660  10.3584310
  59.3317340  74.5257970   9.4469780  59.2374210  73.9078720   8.7220650
  58.7514730  75.2524260   9.2199690  62.0978780  73.0831210   6.4797170
  61.6496080  73.1055470   5.6342720  61.4643980  72.6850230   7.0767470
  62.5038330  81.9785540   7.1009610  62.9226440  82.8218270   6.9285850
  61.5846960  82.1157580   6.8716390  64.8402230  79.7101720   8.4847450
  64.9598440  79.1142860   9.2242290  65.6996230  79.7471410   8.0648750
  67.1790130  80.2638910   7.0609960  66.6525350  80.7881530   6.4575100
  67.5221470  80.8966300   7.6919690  61.6071000  76.2523070   9.7423270
  62.1970690  75.9438920  10.4301090  60.7891240  75.7802820   9.8983170
  66.4264430  75.8688880   9.9756290  65.7379950  75.2070420   9.9106280
  67.1470450  75.4227150  10.4204750  55.9725820  80.6107740   5.4161460
  56.3398860  80.5235140   6.2957480  55.4036640  79.8474290   5.3168320
  70.7729680  79.0792120   8.4291930  70.5415770  78.8504870   7.5289880
  71.0334230  79.9991670   8.3836820  55.5241820  77.5216830   9.3219880
  54.6297870  77.4883590   9.6613590  56.0639370  77.7203620  10.0871130
  69.2117750  74.3048550  11.2071630  70.0887930  74.3131950  11.5905630
  69.2238590  73.5679390  10.5963980  70.8370740  78.2417960   5.6179200
  69.8873450  78.2081500   5.7324190  71.0183750  79.1518070   5.3828970
  56.0281530  71.7965160   3.6703100  56.6757720  71.2462540   3.2298260
  56.4483370  72.0508310   4.4918910  69.9233870  71.9906520   7.0272740
  70.5606090  72.6040660   7.3931930  70.0708760  72.0267180   6.0821970
  55.7813530  71.9520830   6.4128420  55.4328350  72.4084650   7.1786600
  55.4501230  71.0577960   6.4950850  63.2938350  73.1432710   9.9347840
  63.2327240  73.7354540  10.6843250  64.2338730  73.0358670   9.7898100
  65.9312910  72.8002770   9.5740130  66.5453320  73.1182060   8.9121210
  66.4762470  72.3151360  10.1935990  56.4534170  71.4797030   9.6879190
  57.0017160  71.2985080   8.9245300  56.5189480  70.6891140  10.2235500
  66.6720950  71.3634910   5.9009420  65.7980790  71.6970020   5.6982350
  66.5631700  70.8908090   6.7261290  67.5792930  73.5705780   7.2851140
  67.2506290  72.7557540   6.9052870  68.5275230  73.5275590   7.1616830
  64.4195770  72.2804750   4.8402330  63.6367560  72.7550250   5.1199090
  64.1258700  71.3759580   4.7315510  68.9716840  72.9827850   2.8851420
  69.4124930  72.9272950   2.0373020  68.7024430  73.8985860   2.9561600
  60.4554730  72.1275400  11.3915900  60.1739000  72.6309000  10.6276720
  60.8374430  71.3297150  11.0258030  67.0570190  71.5428980  11.9696370
  66.9435640  71.8623590  12.8647890  67.8739930  71.9441490  11.6733650
  65.9628340  60.7877960  76.2048560  65.8822390  59.8732570  75.9340270
  65.5492760  61.2845030  75.4988270  64.0946380  62.5656980  78.0857830
  63.3188480  62.0857420  78.3756400  64.7459310  61.8862630  77.9113990
  68.1153810  66.9717170  76.8656960  67.6535340  66.2004410  77.1944130
  68.9279360  66.9983240  77.3709410  56.5204160  57.8378680  72.7475980
  55.6320860  58.1794650  72.6455860  56.8045350  57.6379000  71.8556810
  54.4837170  60.4384330  78.6315680  55.0553280  59.6706530  78.6319320
  54.4838710  60.7373090  77.7222290  64.3417120  69.2575180  76.4860950
  63.7228560  69.7132680  75.9155390  65.1968900  69.4126640  76.0850650
  63.5355370  65.2414170  78.0927990  63.4663650  64.3004110  77.9317120
  64.2975230  65.3315580  78.6650560  64.5660540  58.0484550  78.3196920
  64.9425360  57.1756430  78.2070590  64.4680050  58.3843250  77.4287360
  58.6965550  56.4210180  73.7814360  58.8032300  57.3213910  74.0883120
  57.7857910  56.3728150  73.4909010  68.3484660  55.5434990  75.2525260
  69.1694280  55.0531560  75.2950740  68.3818740  56.1332650  76.0057100
  60.5373280  59.3896550  78.1139540  61.0451500  59.8877520  78.7544560
  61.0686520  58.6131750  77.9378900  65.2080470  64.1414420  73.8792860
  64.5897740  64.6063870  73.3155580  65.7203720  64.8341900  74.2962370
  68.5846140  57.4835370  78.0252800  67.8801710  57.7720260  78.6055910
  68.9458300  58.2935480  77.6652360  54.5763670  64.8270950  71.2532490
  54.1991650  65.3158050  70.5217390  54.8336740  65.4996230  71.8839020
  71.6533060  56.9290160  78.4162010  70.7057970  56.9629140  78.5477440
  71.9783050  57.7429110  78.8011370  62.1852600  53.2287340  76.7118000
  62.4927580  52.6734230  75.9953500  61.2553300  53.3631800  76.5290990
  69.0313080  65.6670850  74.0915630  68.9209410  64.7245180  74.2165050
  69.0281330  66.0286490  74.9778390  64.5733360  61.2936170  73.4478120
  63.6462640  61.2273550  73.6766590  64.7258180  62.2316300  73.3333360
  64.5602440  57.5653170  70.4445280  63.6206110  57.7267130  70.5297740
  64.8785700  58.2838850  69.8981270  68.6030650  62.8556470  73.9513370
  67.9843070  62.5176020  73.3039670  68.5855100  62.2116230  74.6592560
  60.1790000  61.8200910  76.2297850  59.7747000  61.1078160  75.7343750
  60.2653120  61.4754150  77.1185890  60.6471700  65.5068470  78.3937060
  60.3499990  64.9013940  77.7144840  61.5971520  65.5445780  78.2826420
  66.7795350  62.0943280  70.9586120  67.2188630  61.2565710  70.8123940
  67.4923770  62.7272680  71.0450260  64.8890730  67.0339350  74.9267360
  65.3286640  67.7763680  74.5122750  64.8277620  67.2765920  75.8506320
  70.3612490  53.3486090  69.2727160  70.0485150  53.4412920  70.1726230
  71.1224960  53.9267120  69.2224590  56.8794630  60.7145890  73.7304500
  56.7592230  61.4407980  73.1185770  56.5695520  59.9448800  73.2532410
  55.7627630  65.5861220  75.9479320  55.3555710  65.7275810  75.0932920
  56.6540640  65.3021380  75.7450530  67.5560910  70.0208470  72.2830370
  67.3962050  69.7311410  73.1812200  67.3907620  69.2448600  71.7475600
  60.0349290  69.8007000  74.0601990  59.8591770  68.8842540  73.8469790
  59.1805030  70.1594290  74.2999790  67.2587040  67.5296030  70.8428370
  66.5652200  67.5273320  70.1830650  68.0009900  67.1055350  70.4122540
  66.8236970  69.1558740  74.9176860  67.2793920  68.3748120  75.2315480
  67.1629490  69.8665560  75.4618040  59.3458290  54.0580960  77.1128170
  58.9026440  54.8390500  76.7812690  59.9043280  54.3810850  77.8199110
  62.4617110  53.6791660  71.9934000  61.8371290  53.6751530  72.7187310
  62.3747230  52.8122620  71.5969970  59.1372510  59.1814530  74.8409420
  58.9113430  58.9651700  75.7456040  58.3565040  59.6142990  74.4955390
  66.3670270  59.1877900  73.4400070  65.7679160  59.9113700  73.2563690
  66.9149880  59.1254680  72.6576520  64.9735140  57.8241440  75.4703350
  65.3664710  58.1413640  74.6572040  65.3351990  56.9453320  75.5847870
  54.0099310  54.4142240  77.6933550  53.7212360  54.9845100  78.4058530
  54.7545070  53.9346690  78.0564780  54.1969540  58.3562360  68.9036270
  54.1144210  59.2993120  69.0451260  53.8452600  58.2137270  68.0248620
  61.9967670  57.0901390  77.9706620  62.0003730  56.6491340  77.1211160
  62.8918790  57.4118720  78.0778440  57.8470050  56.9727880  76.9300830
  57.5070100  57.4503110  77.6867880  57.0847370  56.5193000  76.5701930
  62.0587820  58.0913470  70.9613380  62.1800640  58.0499950  71.9099200
  61.6736330  58.9537620  70.8060110  61.0709320  60.4014610  70.3596680
  60.5026220  59.9532860  69.7332590  61.7798320  60.7607390  69.8261830
  55.1616130  55.8946860  75.8465500  54.8763050  55.5302530  76.6844120
  55.0994990  55.1627320  75.2328640  58.6156800  64.3972800  72.6323090
  57.8419060  63.8570420  72.4721810  59.3451430  63.8779410  72.2940850
  69.3744780  63.3938160  78.4249480  70.0943900  63.8893450  78.0345590
  69.1726600  62.7156050  77.7803350  64.8354720  54.7876120  72.5678870
  64.0219330  54.2889290  72.4924180  64.6416670  55.6274370  72.1515220
  67.5503110  59.1595770  70.8641030  68.4382730  59.4713000  70.6892370
  67.5208200  58.2868020  70.4721610  58.6594200  64.0653180  76.2701900
  59.1772870  63.2621440  76.2158790  58.2078220  64.0032320  77.1118730
  63.5463700  65.3319460  71.5429200  63.8879400  66.0761690  71.0472520
  62.7176410  65.6450580  71.9054030  69.8217380  60.4707610  70.3320890
  69.7381100  60.9021830  69.4817330  70.5411570  60.9305960  70.7647710
  70.8504630  67.3249870  73.0603020  70.2080790  66.6705490  73.3346740
  70.4635290  67.7304960  72.2843690  66.4291110  64.6535300  76.9074710
  66.7814930  64.0563430  76.2476080  65.5453440  64.3279530  77.0782960
  62.5154390  65.4132990  74.3145120  63.2025520  65.9602200  74.6952710
  61.7286810  65.9573720  74.3494730  54.6546790  61.0305810  69.8062200
  55.5241640  61.3130610  70.0898120  54.1637110  61.8441680  69.6911010
  61.8181600  62.4179020  73.9270480  62.2744380  63.2284270  74.1530670
  61.4669810  62.1002160  74.7588970  57.7193380  52.7616670  74.3993000
  57.5908010  52.7534570  75.3477920  56.8955400  53.0999760  74.0484010
  69.2402010  66.2166330  69.5979370  69.0139590  65.4996770  70.1904010
  68.8498210  65.9678770  68.7601120  55.0218040  70.2433190  70.3723830
  55.3815680  70.8422530  69.7181100  54.8810380  70.7893080  71.1458860
  68.8218260  64.1338270  71.2593530  68.5339960  64.5950960  72.0471410
  69.6170430  63.6736040  71.5277750  61.0386660  67.6264390  71.1897500
  61.0296760  68.3594080  70.5742010  60.1185020  67.3795970  71.2824460
  56.6393300  62.8479280  71.9344260  56.0321250  63.5878180  71.9439560
  57.1142650  62.9378640  71.1082460  69.5788120  55.9687040  72.4188710
  68.9501280  56.0732710  71.7046940  69.0840040  56.1883820  73.2082590
  64.0246260  67.6892630  69.8522690  64.1258240  67.4856620  68.9224670
  63.1248000  67.4350910  70.0570470  61.5472150  58.2472990  73.8346590
  60.8388300  58.7159330  74.2760200  61.8316630  57.5895000  74.4691780
  65.5787580  54.9723650  75.2742380  65.4555360  54.9909780  74.3251890
  66.5272140  55.0202590  75.3940780  62.6664370  70.2078950  74.5470360
  62.9205870  70.1700340  73.6249730  61.7176850  70.0812280  74.5398610
  59.7507170  56.5558070  71.2097300  60.5997700  56.9928220  71.1437490
  59.3838440  56.8678330  72.0369360  68.6716950  61.1270830  76.1228870
  67.7307090  61.1421060  76.2976560  68.9861020  60.3406790  76.5689170
  58.6498590  62.8090430  69.6832830  59.4161860  62.6971790  70.2458260
  58.7273280  62.1128400  69.0309600  57.3445350  60.2415500  70.3665720
  57.4248940  59.2943010  70.4783120  58.2365100  60.5722380  70.4726380
  70.6742530  68.2979680  77.7983130  70.7989950  69.1210850  78.2706940
  71.5408090  68.0870410  77.4507280  58.1460060  70.3910890  77.4700260
  58.8822540  69.8426350  77.7408830  58.5300980  71.2566900  77.3306250
  55.0305540  66.4584460  73.3441770  54.1045320  66.7005600  73.3347180
  55.4961970  67.2858720  73.2226520  61.2562370  69.5641200  69.2925830
  62.0490980  69.8530030  68.8407620  60.7366720  69.1333370  68.6138310
  70.3092540  68.7911330  70.7162570  70.0234050  68.3776470  69.9016750
  70.1112090  69.7199040  70.5963090  61.7739770  64.7844610  69.1568180
  61.6690410  64.1696960  69.8829560  61.6063990  64.2610500  68.3731190
  65.0142500  63.8464640  69.7610170  64.4652600  64.2933940  70.4052910
  65.6361760  63.3413890  70.2847840  60.6817620  62.8055560  71.6575470
  61.1034040  62.6395430  72.5006860  60.8068460  61.9955790  71.1630610
  63.1945260  61.8293170  68.9052570  63.7150920  61.1142190  68.5393720
  63.8413660  62.4679040  69.2053080  59.5776520  58.8788790  68.6033630
  59.3765580  58.0156150  68.9646970  59.4068570  58.7922150  67.6655230
  67.0564830  53.6897020  71.1320510  67.3367120  52.8464920  71.4879930
  66.2830560  53.9220130  71.6459260  58.3759320  55.9789410  68.5911510
  58.6785220  55.9856840  67.6830660  59.1153910  55.6287270  69.0879170
  61.5944250  54.9224030  69.5767710  61.2466250  54.2448020  68.9970160
  61.7957020  54.4613540  70.3911100  63.7593290  69.9104780  71.1954310
  64.6544080  70.2489750  71.2173070  63.7910920  69.1884190  70.5678590
  57.3989450  65.2831830  69.4241310  57.8364320  65.8261500  70.0798890
  57.8837180  64.4578780  69.4337650  54.6135250  68.0720860  76.8761570
  54.9438260  67.2041920  76.6440210  55.0426250  68.2779380  77.7066530
  59.2097170  66.4029870  74.5363540  58.9092710  66.2794840  75.4367450
  59.1034660  65.5438460  74.1279270  71.9789090  66.1826270  69.2390220
  71.1482050  66.2502920  69.7097450  72.1560920  67.0730390  68.9357080
  71.4345550  62.9273750  71.7424420  72.1964460  63.4970400  71.8484110
  71.4499920  62.3600950  72.5132730  54.9349890  61.4511680  75.9732080
  54.2798730  61.1823320  75.3291780  55.7727840  61.3416160  75.5234060
  72.4405520  63.7823850  76.5866350  72.8114350  62.9991170  76.1802320
  73.0807450  64.4712950  76.4083650  71.4864720  63.2208120  68.8996940
  71.7613560  64.1287000  68.7716160  71.2975460  63.1570650  69.8358930
  67.8840330  56.2452970  70.1950570  68.3025210  56.0583950  69.3547230
  67.5776390  55.3932020  70.5053500  71.3830060  61.1577110  73.8926370
  71.0073660  60.3905040  73.4607660  70.6533180  61.5399810  74.3801300
  54.1487970  58.6610610  71.9157410  53.2452050  58.9240810  71.7409070
  54.6328590  58.9321780  71.1357370  70.6581020  59.3834600  77.1933610
  71.1818500  58.8897250  76.5623780  71.2440440  59.5184960  77.9381180
  56.6915180  57.7176150  69.8251790  57.4006880  57.2959370  69.3399070
  55.9755120  57.7851380  69.1935140  56.3389340  53.7715480  68.8654440
  57.0617470  54.3124420  69.1835660  56.6113860  53.4978900  67.9895980
  70.1480990  58.6407950  73.1326020  70.6440110  58.4078820  73.9174900
  69.9497060  57.8019790  72.7163660  71.5768150  57.2768900  75.6663700
  71.4667430  57.1224940  76.6045970  72.3375740  56.7489840  75.4239110
  72.4658420  55.1076820  68.9069840  73.3907730  54.9758000  68.6988130
  72.4434210  55.1869640  69.8606290  72.5396910  55.8787480  71.5326550
  71.7448410  55.8132600  72.0619460  72.7440190  56.8138120  71.5211900
  69.4815330  69.9179030  75.5264940  70.0774400  69.5963600  74.8499360
  69.7393480  69.4450850  76.3178210  68.9716840  54.2084360  77.9825380
  69.4124930  54.1529460  77.1346980  68.7024430  55.1242370  78.0535560
  70.8355410  53.8399600  75.9934200  70.7743810  52.8960820  75.8465220
  71.6147440  53.9479690  76.5387660  55.1408160  69.9791960  74.9558150
  54.9730200  69.3462640  75.6540040  54.2742670  70.1851360  74.6052340
  55.7636180  53.8108740  72.4590010  56.5215540  53.9237620  71.8854040
  55.3013350  54.6477940  72.4133440  62.3049990  55.9248010  75.4492320
  61.4924500  55.5504900  75.1088200  62.8091630  55.1693090  75.7513510
  66.8074970  52.5890460  76.6875390  67.4104340  53.1610670  77.1623910
  66.0667960  53.1529900  76.4649290  69.9509570  52.9912020  71.9615670
  70.1460200  53.8895470  72.2283100  69.1639440  52.7599100  72.4548620
  56.7470860  68.6725190  72.4008290  56.2218480  69.0533220  71.6970250
  56.6715440  69.2975960  73.1218000  58.1361330  54.3372790  70.9991980
  58.6654090  53.5502590  70.8699930  58.7689650  55.0163980  71.2327510
  60.3299170  54.0747930  74.0537370  59.7001910  53.3735240  74.2207500
  59.7904310  54.8352060  73.8370530  71.5036180  70.2312730  73.7222230
  71.6788370  69.5450470  73.0783150  70.8057750  70.7559780  73.3298900
  59.3463830  70.6207570  71.2757540  60.0782650  70.3366850  70.7281430
  59.6057500  70.3820850  72.1656920  58.5078620  66.7372300  71.2803870
  57.8787500  67.2057400  71.8289700  58.6226450  65.8921520  71.7150060
  65.9628340  60.7877960  57.4305070  65.8822390  59.8732570  57.1596780
  65.5492760  61.2845030  56.7244780  64.0946380  62.5656980  59.3114340
  63.3188480  62.0857420  59.6012910  64.7459310  61.8862630  59.1370500
  58.1112210  62.8776790  60.1890100  57.2797090  62.6225500  60.5886610
  58.7193190  62.9487560  60.9248020  68.1153810  66.9717170  58.0913470
  67.6535340  66.2004410  58.4200640  68.9279360  66.9983240  58.5965920
  58.0913470  66.9116880  60.3848120  58.3941510  66.0214620  60.2058340
  58.8357060  67.4687100  60.1570370  56.5204160  57.8378680  53.9732490
  55.6320860  58.1794650  53.8712370  56.8045350  57.6379000  53.0813320
  54.4837170  60.4384330  59.8572190  55.0553280  59.6706530  59.8575830
  54.4838710  60.7373090  58.9478800  64.3417120  69.2575180  57.7117460
  63.7228560  69.7132680  57.1411900  65.1968900  69.4126640  57.3107160
  63.5355370  65.2414170  59.3184500  63.4663650  64.3004110  59.1573630
  64.2975230  65.3315580  59.8907070  55.7262040  55.8468690  61.6441120
  55.5464880  54.9494440  61.9243880  55.3242120  56.3940560  62.3188070
  64.5660540  58.0484550  59.5453430  64.9425360  57.1756430  59.4327100
  64.4680050  58.3843250  58.6543870  58.6965550  56.4210180  55.0070870
  58.8032300  57.3213910  55.3139630  57.7857910  56.3728150  54.7165520
  68.3484660  55.5434990  56.4781770  69.1694280  55.0531560  56.5207250
  68.3818740  56.1332650  57.2313610  56.3448710  58.3429190  60.2523460
  57.0258820  58.6067560  60.8710860  56.0296760  57.5030060  60.5861470
  60.5373280  59.3896550  59.3396050  61.0451500  59.8877520  59.9801070
  61.0686520  58.6131750  59.1635410  72.6384210  57.5601740  63.0425400
  71.9336380  57.9483450  62.5240510  72.9042130  58.2552030  63.6446330
  58.8209380  54.0295110  63.6059470  58.8227820  54.5467500  62.8005370
  57.9913690  53.5525290  63.5829400  65.2080470  64.1414420  55.1049370
  64.5897740  64.6063870  54.5412090  65.7203720  64.8341900  55.5218880
  60.0712230  63.6690290  61.7832970  59.7381610  64.2959210  62.4254040
  60.2478910  64.1952170  61.0034640  68.5846140  57.4835370  59.2509310
  67.8801710  57.7720260  59.8312420  68.9458300  58.2935480  58.8908870
  58.5024710  55.7405070  61.6129920  58.8441520  56.5847120  61.3183790
  57.5640520  55.8888810  61.7295260  59.2831330  65.6371090  63.5982150
  59.9005330  66.3122170  63.3166600  58.4224450  66.0459070  63.5069650
  54.5763670  64.8270950  52.4789000  54.1991650  65.3158050  51.7473900
  54.8336740  65.4996230  53.1095530  70.2008920  67.1010500  61.5136790
  69.5172440  67.7709610  61.5053460  70.7403210  67.2991150  60.7481650
  71.6533060  56.9290160  59.6418520  70.7057970  56.9629140  59.7733950
  71.9783050  57.7429110  60.0267880  62.1852600  53.2287340  57.9374510
  62.4927580  52.6734230  57.2210010  61.2553300  53.3631800  57.7547500
  67.7367660  68.9454630  60.2281970  67.7494820  68.5416920  59.3604230
  67.1842880  69.7201920  60.1243400  69.0313080  65.6670850  55.3172140
  68.9209410  64.7245180  55.4421560  69.0281330  66.0286490  56.2034900
  67.1353100  63.8484470  61.5564580  67.5521890  63.6344580  60.7218040
  67.8592920  64.1057260  62.1273200  64.5733360  61.2936170  54.6734630
  63.6462640  61.2273550  54.9023100  64.7258180  62.2316300  54.5589870
  64.5602440  57.5653170  51.6701790  63.6206110  57.7267130  51.7554250
  64.8785700  58.2838850  51.1237780  71.0815200  62.2471690  61.6480820
  70.2533830  62.3164780  61.1730950  71.6765680  62.8326000  61.1796650
  68.6030650  62.8556470  55.1769880  67.9843070  62.5176020  54.5296180
  68.5855100  62.2116230  55.8849070  68.0457210  59.0341010  62.5935690
  67.6328390  59.8594720  62.8475680  67.3133160  58.4486050  62.4012050
  60.1790000  61.8200910  57.4554360  59.7747000  61.1078160  56.9600260
  60.2653120  61.4754150  58.3442400  60.6471700  65.5068470  59.6193570
  60.3499990  64.9013940  58.9401350  61.5971520  65.5445780  59.5082930
  58.8918620  58.5944120  61.2353400  59.4433210  58.7039460  60.4606650
  59.4062130  58.9681720  61.9508630  68.7357310  69.0800340  63.2816670
  68.2587870  69.8872530  63.0889280  68.0519100  68.4278670  63.4342880
  59.7390130  65.2450160  66.2701370  58.8418660  65.4690130  66.5174770
  59.7643000  65.3685100  65.3212770  66.7795350  62.0943280  52.1842630
  67.2188630  61.2565710  52.0380450  67.4923770  62.7272680  52.2706770
  58.5661350  62.1163480  64.8458740  58.4269120  62.9886280  65.2146140
  57.6842710  61.7736290  64.7006680  64.8890730  67.0339350  56.1523870
  65.3286640  67.7763680  55.7379260  64.8277620  67.2765920  57.0762830
  60.3641700  68.0585180  67.0543890  60.3357130  68.4628130  66.1872320
  60.2006670  67.1295540  66.8915490  70.3612490  53.3486090  50.4983670
  70.0485150  53.4412920  51.3982740  71.1224960  53.9267120  50.4481100
  56.8794630  60.7145890  54.9561010  56.7592230  61.4407980  54.3442280
  56.5695520  59.9448800  54.4788920  72.3156520  68.8412280  68.3508060
  72.7916240  69.3195170  69.0297140  72.9363680  68.7729770  67.6253560
  54.5180000  63.8861030  60.7629650  54.5960420  64.0209800  59.8185370
  55.1321680  63.1776920  60.9557770  55.7627630  65.5861220  57.1735830
  55.3555710  65.7275810  56.3189430  56.6540640  65.3021380  56.9707040
  71.7189770  66.0325130  65.5108070  71.8452830  65.7937010  64.5925250
  71.7611150  65.2009670  65.9830150  65.5806510  69.7353130  64.0802880
  66.0951180  69.6461140  64.8825310  64.7375590  70.0812830  64.3730790
  67.5560910  70.0208470  53.5086880  67.3962050  69.7311410  54.4068710
  67.3907620  69.2448600  52.9732110  60.0349290  69.8007000  55.2858500
  59.8591770  68.8842540  55.0726300  59.1805030  70.1594290  55.5256300
  67.2587040  67.5296030  52.0684880  66.5652200  67.5273320  51.4087160
  68.0009900  67.1055350  51.6379050  66.8236970  69.1558740  56.1433370
  67.2793920  68.3748120  56.4571990  67.1629490  69.8665560  56.6874550
  71.5713780  58.0857590  66.4757810  70.9558050  58.5937260  65.9473270
  71.2510200  57.1855920  66.4183750  54.5739520  64.9275200  63.3024110
  54.7370560  64.4580560  62.4843480  55.0391970  64.4198760  63.9672950
  59.3458290  54.0580960  58.3384680  58.9026440  54.8390500  58.0069200
  59.9043280  54.3810850  59.0455620  63.6328100  56.9249480  63.9420000
  63.1707470  57.1332500  64.7539940  63.2306210  56.1108830  63.6390670
  68.6332610  58.1458430  65.0716660  67.7826200  57.8464180  65.3925730
  68.4734400  58.3900440  64.1600480  65.7282320  59.6460180  67.1715450
  66.0535730  58.8123930  66.8317680  66.5162650  60.1688700  67.3193780
  62.4617110  53.6791660  53.2190510  61.8371290  53.6751530  53.9443820
  62.3747230  52.8122620  52.8226480  61.3834190  54.6028290  60.1974280
  61.6806520  55.5091120  60.1166300  61.9319750  54.1147070  59.5833850
  59.1372510  59.1814530  56.0665930  58.9113430  58.9651700  56.9712550
  58.3565040  59.6142990  55.7211900  66.3670270  59.1877900  54.6656580
  65.7679160  59.9113700  54.4820200  66.9149880  59.1254680  53.8833030
  61.5771720  60.0800110  66.7326200  61.4815320  59.1394840  66.5826600
  62.4203700  60.3015180  66.3374270  64.9735140  57.8241440  56.6959860
  65.3664710  58.1413640  55.8828550  65.3351990  56.9453320  56.8104380
  56.7082260  56.4913780  64.8859980  56.3145650  57.3388990  65.0932760
  56.0200660  55.8540150  65.0768620  63.2827310  56.5748750  67.9556720
  62.5925630  56.3820950  68.5902810  64.0259610  56.8583390  68.4881020
  54.0099310  54.4142240  58.9190060  53.7212360  54.9845100  59.6315040
  54.7545070  53.9346690  59.2821290  54.1969540  58.3562360  50.1292780
  54.1144210  59.2993120  50.2707770  53.8452600  58.2137270  49.2505130
  65.5590280  60.4147190  60.7910640  64.8271400  60.9234000  61.1400740
  65.1614620  59.5977170  60.4899420  61.9967670  57.0901390  59.1963130
  62.0003730  56.6491340  58.3467670  62.8918790  57.4118720  59.3034950
  57.8470050  56.9727880  58.1557340  57.5070100  57.4503110  58.9124390
  57.0847370  56.5193000  57.7958440  62.0587820  58.0913470  52.1869890
  62.1800640  58.0499950  53.1355710  61.6736330  58.9537620  52.0316620
  66.0216190  55.8680870  60.2033580  66.0388930  56.3189520  61.0475430
  65.7731770  54.9686510  60.4167020  61.0709320  60.4014610  51.5853190
  60.5026220  59.9532860  50.9589100  61.7798320  60.7607390  51.0518340
  69.4486940  53.2813050  66.0419960  69.7732710  52.5502710  66.5677940
  69.4843450  52.9626690  65.1400950  56.1478500  64.3026630  65.4619920
  55.7633290  63.6620300  66.0602880  56.4590690  65.0062750  66.0314650
  62.2975640  61.1503170  60.9428540  62.6645770  60.6761740  61.6889880
  62.1080700  62.0244740  61.2836880  55.1616130  55.8946860  57.0722010
  54.8763050  55.5302530  57.9100630  55.0994990  55.1627320  56.4585150
  60.0875010  60.1911810  63.2612750  59.7832080  61.0703790  63.4863110
  61.0421470  60.2511600  63.2970190  58.6156800  64.3972800  53.8579600
  57.8419060  63.8570420  53.6978320  59.3451430  63.8779410  53.5197360
  69.3744780  63.3938160  59.6505990  70.0943900  63.8893450  59.2602100
  69.1726600  62.7156050  59.0059860  64.8354720  54.7876120  53.7935380
  64.0219330  54.2889290  53.7180690  64.6416670  55.6274370  53.3771730
  64.7563580  63.4647220  65.5374990  64.6900890  62.5442890  65.2832580
  64.1268720  63.5622660  66.2519630  67.5503110  59.1595770  52.0897540
  68.4382730  59.4713000  51.9148880  67.5208200  58.2868020  51.6978120
  58.6594200  64.0653180  57.4958410  59.1772870  63.2621440  57.4415300
  58.2078220  64.0032320  58.3375240  63.5463700  65.3319460  52.7685710
  63.8879400  66.0761690  52.2729030  62.7176410  65.6450580  53.1310540
  56.1438740  61.0314550  64.4084110  55.7853680  61.6968400  64.9957450
  55.8493300  60.1998100  64.7796730  59.3451860  61.4898790  67.2923660
  59.0452000  61.6355970  66.3951480  60.1163100  60.9304080  67.1997050
  64.6880310  66.2867790  65.2878790  64.7024850  65.3548750  65.0697700
  63.9805410  66.3727550  65.9268560  69.8217380  60.4707610  51.5577400
  69.7381100  60.9021830  50.7073840  70.5411570  60.9305960  51.9904220
  70.8991520  62.9275130  64.6347370  70.1739710  63.5203910  64.4376760
  71.4266980  62.9198670  63.8360740  70.8504630  67.3249870  54.2859530
  70.2080790  66.6705490  54.5603250  70.4635290  67.7304960  53.5100200
  66.4291110  64.6535300  58.1331220  66.7814930  64.0563430  57.4732590
  65.5453440  64.3279530  58.3039470  62.5154390  65.4132990  55.5401630
  63.2025520  65.9602200  55.9209220  61.7286810  65.9573720  55.5751240
  54.6546790  61.0305810  51.0318710  55.5241640  61.3130610  51.3154630
  54.1637110  61.8441680  50.9167520  61.8181600  62.4179020  55.1526990
  62.2744380  63.2284270  55.3787180  61.4669810  62.1002160  55.9845480
  64.1214210  67.9285360  62.3819290  64.7656430  68.1344740  63.0592710
  64.4843650  67.1673760  61.9290140  65.3946290  65.9317710  61.0996740
  66.0368520  65.2310870  61.2128910  65.9195640  66.7116150  60.9193630
  69.2402010  66.2166330  50.8235880  69.0139590  65.4996770  51.4160520
  68.8498210  65.9678770  49.9857630  67.1683910  66.7312610  64.3032800
  67.5040150  67.3179300  64.9810720  66.2484250  66.6005320  64.5330590
  55.0218040  70.2433190  51.5980340  55.3815680  70.8422530  50.9437610
  54.8810380  70.7893080  52.3715370  54.7187310  54.5207790  65.0856210
  54.0045830  54.7204710  65.6908820  55.1382350  53.7447360  65.4571010
  68.8218260  64.1338270  52.4850040  68.5339960  64.5950960  53.2727920
  69.6170430  63.6736040  52.7534260  55.0059900  68.5088050  66.0722740
  55.1151020  67.5682790  65.9318130  54.3540460  68.7742800  65.4236470
  62.9972490  66.7803940  67.4720860  62.6769360  66.0613180  68.0166550
  62.3230850  67.4559010  67.5456920  61.0386660  67.6264390  52.4154010
  61.0296760  68.3594080  51.7998520  60.1185020  67.3795970  52.5080970
  56.6393300  62.8479280  53.1600770  56.0321250  63.5878180  53.1696070
  57.1142650  62.9378640  52.3338970  66.2126090  57.0130100  62.8357660
  66.5806910  56.1925310  63.1637230  65.3524290  57.0731990  63.2513310
  69.5788120  55.9687040  53.6445220  68.9501280  56.0732710  52.9303450
  69.0840040  56.1883820  54.4339100  64.0246260  67.6892630  51.0779200
  64.1258240  67.4856620  50.1481180  63.1248000  67.4350910  51.2826980
  61.5472150  58.2472990  55.0603100  60.8388300  58.7159330  55.5016710
  61.8316630  57.5895000  55.6948290  63.1728080  59.6669690  63.0595630
  63.6713330  60.1415510  63.7247480  63.3151030  58.7433210  63.2665660
  65.5787580  54.9723650  56.4998890  65.4555360  54.9909780  55.5508400
  66.5272140  55.0202590  56.6197290  62.6664370  70.2078950  55.7726870
  62.9205870  70.1700340  54.8506240  61.7176850  70.0812280  55.7655120
  59.7507170  56.5558070  52.4353810  60.5997700  56.9928220  52.3694000
  59.3838440  56.8678330  53.2625870  70.3794940  55.8837650  63.9024020
  69.8768540  56.6243050  64.2417830  71.1951600  56.2721650  63.5860810
  68.6716950  61.1270830  57.3485380  67.7307090  61.1421060  57.5233070
  68.9861020  60.3406790  57.7945680  58.6498590  62.8090430  50.9089340
  59.4161860  62.6971790  51.4714770  58.7273280  62.1128400  50.2566110
  57.3445350  60.2415500  51.5922230  57.4248940  59.2943010  51.7039630
  58.2365100  60.5722380  51.6982890  70.6742530  68.2979680  59.0239640
  70.7989950  69.1210850  59.4963450  71.5408090  68.0870410  58.6763790
  58.1460060  70.3910890  58.6956770  58.8822540  69.8426350  58.9665340
  58.5300980  71.2566900  58.5562760  55.0305540  66.4584460  54.5698280
  54.1045320  66.7005600  54.5603690  55.4961970  67.2858720  54.4483030
  57.1518340  69.5756960  67.8842350  57.9531070  69.8969010  68.2977750
  56.6370160  69.2152540  68.6062260  61.2562370  69.5641200  50.5182340
  62.0490980  69.8530030  50.0664130  60.7366720  69.1333370  49.8394820
  65.9882970  65.6836830  67.8317760  65.3821130  65.7068430  67.0913510
  65.6837080  64.9519870  68.3685010  67.4183340  69.4117120  66.4427170
  68.3705090  69.3275140  66.3927410  67.2711560  70.0758830  67.1160960
  70.3092540  68.7911330  51.9419080  70.0234050  68.3776470  51.1273260
  70.1112090  69.7199040  51.8219600  54.8716150  62.0630420  66.8278400
  55.3755170  61.4837700  67.3994630  54.1323570  62.3470650  67.3654770
  61.7739770  64.7844610  50.3824690  61.6690410  64.1696960  51.1086070
  61.6063990  64.2610500  49.5987700  61.9254090  63.4701410  66.3613920
  61.1599760  64.0386410  66.2768590  62.1070050  63.1777620  65.4682150
  65.0142500  63.8464640  50.9866680  64.4652600  64.2933940  51.6309420
  65.6361760  63.3413890  51.5104350  69.0677440  65.2006740  66.9188940
  69.8086910  65.5382500  66.4156400  68.3050120  65.3698800  66.3658710
  56.9039230  60.2060010  67.7228470  56.9444570  59.9073880  68.6313700
  57.7584730  60.6067620  67.5635990  60.6817620  62.8055560  52.8831980
  61.1034040  62.6395430  53.7263370  60.8068460  61.9955790  52.3887120
  58.8445040  58.7852110  65.6902960  58.3141500  58.2943060  65.0626300
  59.5133110  59.2136310  65.1560890  63.1945260  61.8293170  50.1309080
  63.7150920  61.1142190  49.7650230  63.8413660  62.4679040  50.4309590
  67.7423100  63.2521570  65.4544150  68.1564120  63.4066650  66.3034570
  66.8074100  63.3776790  65.6169930  68.2145270  60.5917730  67.4583300
  68.7966040  59.8370050  67.3703780  68.3907040  61.1225170  66.6814780
  59.3317340  55.7514480  65.7700250  59.2374210  55.1335230  65.0451120
  58.7514730  56.4780770  65.5430160  62.0978780  54.3087720  62.8027640
  61.6496080  54.3311980  61.9573190  61.4643980  53.9106740  63.3997940
  62.5038330  63.2042050  63.4240080  62.9226440  64.0474780  63.2516320
  61.5846960  63.3414090  63.1946860  64.8402230  60.9358230  64.8077920
  64.9598440  60.3399370  65.5472760  65.6996230  60.9727920  64.3879220
  67.1790130  61.4895420  63.3840430  66.6525350  62.0138040  62.7805570
  67.5221470  62.1222810  64.0150160  59.5776520  58.8788790  49.8290140
  59.3765580  58.0156150  50.1903480  59.4068570  58.7922150  48.8911740
  60.3545750  69.5095060  64.5397810  59.8166840  70.2341120  64.2206510
  60.6079710  69.0325400  63.7495150  61.6071000  57.4779580  66.0653740
  62.1970690  57.1695430  66.7531560  60.7891240  57.0059330  66.2213640
  66.4264430  57.0945390  66.2986760  65.7379950  56.4326930  66.2336750
  67.1470450  56.6483660  66.7435220  67.0564830  53.6897020  52.3577020
  67.3367120  52.8464920  52.7136440  66.2830560  53.9220130  52.8715770
  58.3759320  55.9789410  49.8168020  58.6785220  55.9856840  48.9087170
  59.1153910  55.6287270  50.3135680  63.2107960  70.7446270  64.7984460
  63.1366660  71.6481410  65.1056830  62.3086800  70.4258170  64.7706530
  61.5944250  54.9224030  50.8024220  61.2466250  54.2448020  50.2226670
  61.7957020  54.4613540  51.6167610  63.7593290  69.9104780  52.4210820
  64.6544080  70.2489750  52.4429580  63.7910920  69.1884190  51.7935100
  57.3989450  65.2831830  50.6497820  57.8364320  65.8261500  51.3055400
  57.8837180  64.4578780  50.6594160  54.6135250  68.0720860  58.1018080
  54.9438260  67.2041920  57.8696720  55.0426250  68.2779380  58.9323040
  59.2097170  66.4029870  55.7620050  58.9092710  66.2794840  56.6623960
  59.1034660  65.5438460  55.3535780  55.1025460  68.9391450  60.8399710
  54.6656450  69.1192250  61.6723860  55.6703140  69.6966070  60.6981430
  70.7387640  68.4408450  65.1277020  70.1389630  68.5001010  64.3840940
  70.8681540  67.5013430  65.2573870  71.9789090  66.1826270  50.4646730
  71.1482050  66.2502920  50.9353960  72.1560920  67.0730390  50.1613590
  71.4345550  62.9273750  52.9680930  72.1964460  63.4970400  53.0740620
  71.4499920  62.3600950  53.7389240  54.9349890  61.4511680  57.1988590
  54.2798730  61.1823320  56.5548290  55.7727840  61.3416160  56.7490570
  72.4405520  63.7823850  57.8122860  72.8114350  62.9991170  57.4058830
  73.0807450  64.4712950  57.6340160  69.4239280  65.1660430  63.2253180
  68.6099120  65.5957590  63.4878970  69.8313480  65.7778840  62.6122230
  71.4864720  63.2208120  50.1253450  71.7613560  64.1287000  49.9972670
  71.2975460  63.1570650  51.0615440  67.8840330  56.2452970  51.4207080
  68.3025210  56.0583950  50.5803740  67.5776390  55.3932020  51.7310010
  71.3830060  61.1577110  55.1182880  71.0073660  60.3905040  54.6864170
  70.6533180  61.5399810  55.6057810  55.9725820  61.8364250  61.7391930
  56.3398860  61.7491650  62.6187950  55.4036640  61.0730800  61.6398790
  70.7729680  60.3048630  64.7522400  70.5415770  60.0761380  63.8520350
  71.0334230  61.2248180  64.7067290  55.5241820  58.7473340  65.6450350
  54.6297870  58.7140100  65.9844060  56.0639370  58.9460130  66.4101600
  69.2117750  55.5305060  67.5302100  70.0887930  55.5388460  67.9136100
  69.2238590  54.7935900  66.9194450  54.1487970  58.6610610  53.1413920
  53.2452050  58.9240810  52.9665580  54.6328590  58.9321780  52.3613880
  70.6581020  59.3834600  58.4190120  71.1818500  58.8897250  57.7880290
  71.2440440  59.5184960  59.1637690  70.8370740  59.4674470  61.9409670
  69.8873450  59.4338010  62.0554660  71.0183750  60.3774580  61.7059440
  56.6915180  57.7176150  51.0508300  57.4006880  57.2959370  50.5655580
  55.9755120  57.7851380  50.4191650  70.1480990  58.6407950  54.3582530
  70.6440110  58.4078820  55.1431410  69.9497060  57.8019790  53.9420170
  56.0281530  53.0221670  59.9933570  56.6757720  52.4719050  59.5528730
  56.4483370  53.2764820  60.8149380  71.5768150  57.2768900  56.8920210
  71.4667430  57.1224940  57.8302480  72.3375740  56.7489840  56.6495620
  69.9233870  53.2163030  63.3503210  70.5606090  53.8297170  63.7162400
  70.0708760  53.2523690  62.4052440  72.4658420  55.1076820  50.1326350
  73.3907730  54.9758000  49.9244640  72.4434210  55.1869640  51.0862800
  72.5396910  55.8787480  52.7583060  71.7448410  55.8132600  53.2875970
  72.7440190  56.8138120  52.7468410  69.4815330  69.9179030  56.7521450
  70.0774400  69.5963600  56.0755870  69.7393480  69.4450850  57.5434720
  55.7813530  53.1777340  62.7358890  55.4328350  53.6341160  63.5017070
  55.4501230  52.2834470  62.8181320  57.3877900  66.3496940  66.9012080
  57.3447530  65.9789850  67.7826540  57.5188910  67.2874510  67.0413900
  61.0883930  67.9056530  62.5021800  60.8475290  68.1731090  61.6152320
  62.0286570  68.0762260  62.5572660  63.2938350  54.3689220  66.2578310
  63.2327240  54.9611050  67.0073720  64.2338730  54.2615180  66.1128570
  65.9312910  54.0259280  65.8970600  66.5453320  54.3438570  65.2351680
  66.4762470  53.5407870  66.5166460  72.3488090  69.9250910  63.3032440
  71.8546370  70.3219780  62.5859570  71.7401380  69.3000120  63.6969720
  56.4534170  52.7053540  66.0109660  57.0017160  52.5241590  65.2475770
  56.5189480  51.9147650  66.5465970  57.2265930  69.2959190  64.0209860
  56.6326250  69.1643890  64.7599900  57.2189770  68.4597330  63.5551960
  66.6720950  52.5891420  62.2239890  65.7980790  52.9226530  62.0212820
  66.5631700  52.1164600  63.0491760  67.5792930  54.7962290  63.6081610
  67.2506290  53.9814050  63.2283340  68.5275230  54.7532100  63.4847300
  70.0327540  70.5674330  60.5819180  69.5730510  71.3190140  60.2077200
  69.4040000  69.8480800  60.5233980  56.8578160  66.6617570  62.9717900
  56.1312220  66.0422860  62.9043850  56.9187310  67.0558180  62.1015980
  60.4623260  68.8762570  59.7567310  60.9788280  68.2649930  59.2315570
  61.1120640  69.3791350  60.2478320  63.2018760  69.7671060  60.5836290
  63.4896570  69.5125360  59.7069300  63.7141980  69.2148420  61.1741860
  64.4195770  53.5061260  61.1632800  63.6367560  53.9806760  61.4429560
  64.1258700  52.6016090  61.0545980  68.9716840  54.2084360  59.2081890
  69.4124930  54.1529460  58.3603490  68.7024430  55.1242370  59.2792070
  70.8355410  53.8399600  57.2190710  70.7743810  52.8960820  57.0721730
  71.6147440  53.9479690  57.7644170  55.1408160  69.9791960  56.1814660
  54.9730200  69.3462640  56.8796550  54.2742670  70.1851360  55.8308850
  62.3049990  55.9248010  56.6748830  61.4924500  55.5504900  56.3344710
  62.8091630  55.1693090  56.9770020  66.8074970  52.5890460  57.9131900
  67.4104340  53.1610670  58.3880420  66.0667960  53.1529900  57.6905800
  69.9509570  52.9912020  53.1872180  70.1460200  53.8895470  53.4539610
  69.1639440  52.7599100  53.6805130  56.7470860  68.6725190  53.6264800
  56.2218480  69.0533220  52.9226760  56.6715440  69.2975960  54.3474510
  60.3299170  54.0747930  55.2793880  59.7001910  53.3735240  55.4464010
  59.7904310  54.8352060  55.0627040  63.2691120  70.6887160  67.9504490
  64.1958430  70.4531430  67.9940450  63.2541550  71.5159160  67.4690520
  71.5036180  70.2312730  54.9478740  71.6788370  69.5450470  54.3039660
  70.8057750  70.7559780  54.5555410  60.4554730  53.3531910  67.7146370
  60.1739000  53.8565510  66.9507190  60.8374430  52.5553660  67.3488500
  59.3463830  70.6207570  52.5014050  60.0782650  70.3366850  51.9537940
  59.6057500  70.3820850  53.3913430  58.5078620  66.7372300  52.5060380
  57.8787500  67.2057400  53.0546210  58.6226450  65.8921520  52.9406570
  67.0570190  52.7685490  68.2926840  66.9435640  53.0880100  69.1878360
  67.8739930  53.1698000  67.9964120  69.8368680  69.9157020  67.7745530
  70.6294000  69.4206250  67.5671490  70.1301830  70.5947160  68.3821140
  65.9628340  60.7877960  38.6561580  65.8822390  59.8732570  38.3853290
  65.5492760  61.2845030  37.9501290  64.0946380  62.5656980  40.5370850
  63.3188480  62.0857420  40.8269420  64.7459310  61.8862630  40.3627010
  58.1112210  62.8776790  41.4146610  57.2797090  62.6225500  41.8143120
  58.7193190  62.9487560  42.1504530  68.1153810  66.9717170  39.3169980
  67.6535340  66.2004410  39.6457150  68.9279360  66.9983240  39.8222430
  58.0913470  66.9116880  41.6104630  58.3941510  66.0214620  41.4314850
  58.8357060  67.4687100  41.3826880  56.5204160  57.8378680  35.1989000
  55.6320860  58.1794650  35.0968880  56.8045350  57.6379000  34.3069830
  54.4837170  60.4384330  41.0828700  55.0553280  59.6706530  41.0832340
  54.4838710  60.7373090  40.1735310  64.3417120  69.2575180  38.9373970
  63.7228560  69.7132680  38.3668410  65.1968900  69.4126640  38.5363670
  63.5355370  65.2414170  40.5441010  63.4663650  64.3004110  40.3830140
  64.2975230  65.3315580  41.1163580  55.7262040  55.8468690  42.8697630
  55.5464880  54.9494440  43.1500390  55.3242120  56.3940560  43.5444580
  64.5660540  58.0484550  40.7709940  64.9425360  57.1756430  40.6583610
  64.4680050  58.3843250  39.8800380  58.6965550  56.4210180  36.2327380
  58.8032300  57.3213910  36.5396140  57.7857910  56.3728150  35.9422030
  68.3484660  55.5434990  37.7038280  69.1694280  55.0531560  37.7463760
  68.3818740  56.1332650  38.4570120  56.3448710  58.3429190  41.4779970
  57.0258820  58.6067560  42.0967370  56.0296760  57.5030060  41.8117980
  60.5373280  59.3896550  40.5652560  61.0451500  59.8877520  41.2057580
  61.0686520  58.6131750  40.3891920  72.6384210  57.5601740  44.2681910
  71.9336380  57.9483450  43.7497020  72.9042130  58.2552030  44.8702840
  58.8209380  54.0295110  44.8315980  58.8227820  54.5467500  44.0261880
  57.9913690  53.5525290  44.8085910  65.2080470  64.1414420  36.3305880
  64.5897740  64.6063870  35.7668600  65.7203720  64.8341900  36.7475390
  60.0712230  63.6690290  43.0089480  59.7381610  64.2959210  43.6510550
  60.2478910  64.1952170  42.2291150  68.5846140  57.4835370  40.4765820
  67.8801710  57.7720260  41.0568930  68.9458300  58.2935480  40.1165380
  58.5024710  55.7405070  42.8386430  58.8441520  56.5847120  42.5440300
  57.5640520  55.8888810  42.9551770  59.2831330  65.6371090  44.8238660
  59.9005330  66.3122170  44.5423110  58.4224450  66.0459070  44.7326160
  54.5763670  64.8270950  33.7045510  54.1991650  65.3158050  32.9730410
  54.8336740  65.4996230  34.3352040  70.2008920  67.1010500  42.7393300
  69.5172440  67.7709610  42.7309970  70.7403210  67.2991150  41.9738160
  71.6533060  56.9290160  40.8675030  70.7057970  56.9629140  40.9990460
  71.9783050  57.7429110  41.2524390  62.1852600  53.2287340  39.1631020
  62.4927580  52.6734230  38.4466520  61.2553300  53.3631800  38.9804010
  67.7367660  68.9454630  41.4538480  67.7494820  68.5416920  40.5860740
  67.1842880  69.7201920  41.3499910  69.0313080  65.6670850  36.5428650
  68.9209410  64.7245180  36.6678070  69.0281330  66.0286490  37.4291410
  67.1353100  63.8484470  42.7821090  67.5521890  63.6344580  41.9474550
  67.8592920  64.1057260  43.3529710  64.5733360  61.2936170  35.8991140
  63.6462640  61.2273550  36.1279610  64.7258180  62.2316300  35.7846380
  64.5602440  57.5653170  32.8958300  63.6206110  57.7267130  32.9810760
  64.8785700  58.2838850  32.3494290  71.0815200  62.2471690  42.8737330
  70.2533830  62.3164780  42.3987460  71.6765680  62.8326000  42.4053160
  68.6030650  62.8556470  36.4026390  67.9843070  62.5176020  35.7552690
  68.5855100  62.2116230  37.1105580  68.0457210  59.0341010  43.8192200
  67.6328390  59.8594720  44.0732190  67.3133160  58.4486050  43.6268560
  60.1790000  61.8200910  38.6810870  59.7747000  61.1078160  38.1856770
  60.2653120  61.4754150  39.5698910  60.6471700  65.5068470  40.8450080
  60.3499990  64.9013940  40.1657860  61.5971520  65.5445780  40.7339440
  58.8918620  58.5944120  42.4609910  59.4433210  58.7039460  41.6863160
  59.4062130  58.9681720  43.1765140  68.7357310  69.0800340  44.5073180
  68.2587870  69.8872530  44.3145790  68.0519100  68.4278670  44.6599390
  59.7390130  65.2450160  47.4957880  58.8418660  65.4690130  47.7431280
  59.7643000  65.3685100  46.5469280  66.7795350  62.0943280  33.4099140
  67.2188630  61.2565710  33.2636960  67.4923770  62.7272680  33.4963280
  58.5661350  62.1163480  46.0715250  58.4269120  62.9886280  46.4402650
  57.6842710  61.7736290  45.9263190  64.8890730  67.0339350  37.3780380
  65.3286640  67.7763680  36.9635770  64.8277620  67.2765920  38.3019340
  60.3641700  68.0585180  48.2800400  60.3357130  68.4628130  47.4128830
  60.2006670  67.1295540  48.1172000  70.3612490  53.3486090  31.7240180
  70.0485150  53.4412920  32.6239250  71.1224960  53.9267120  31.6737610
  56.8794630  60.7145890  36.1817520  56.7592230  61.4407980  35.5698790
  56.5695520  59.9448800  35.7045430  72.3156520  68.8412280  49.5764570
  72.7916240  69.3195170  50.2553650  72.9363680  68.7729770  48.8510070
  54.5180000  63.8861030  41.9886160  54.5960420  64.0209800  41.0441880
  55.1321680  63.1776920  42.1814280  55.7627630  65.5861220  38.3992340
  55.3555710  65.7275810  37.5445940  56.6540640  65.3021380  38.1963550
  71.7189770  66.0325130  46.7364580  71.8452830  65.7937010  45.8181760
  71.7611150  65.2009670  47.2086660  65.5806510  69.7353130  45.3059390
  66.0951180  69.6461140  46.1081820  64.7375590  70.0812830  45.5987300
  67.5560910  70.0208470  34.7343390  67.3962050  69.7311410  35.6325220
  67.3907620  69.2448600  34.1988620  60.0349290  69.8007000  36.5115010
  59.8591770  68.8842540  36.2982810  59.1805030  70.1594290  36.7512810
  67.2587040  67.5296030  33.2941390  66.5652200  67.5273320  32.6343670
  68.0009900  67.1055350  32.8635560  66.8236970  69.1558740  37.3689880
  67.2793920  68.3748120  37.6828500  67.1629490  69.8665560  37.9131060
  71.5713780  58.0857590  47.7014320  70.9558050  58.5937260  47.1729780
  71.2510200  57.1855920  47.6440260  54.5739520  64.9275200  44.5280620
  54.7370560  64.4580560  43.7099990  55.0391970  64.4198760  45.1929460
  59.3458290  54.0580960  39.5641190  58.9026440  54.8390500  39.2325710
  59.9043280  54.3810850  40.2712130  63.6328100  56.9249480  45.1676510
  63.1707470  57.1332500  45.9796450  63.2306210  56.1108830  44.8647180
  68.6332610  58.1458430  46.2973170  67.7826200  57.8464180  46.6182240
  68.4734400  58.3900440  45.3856990  65.7282320  59.6460180  48.3971960
  66.0535730  58.8123930  48.0574190  66.5162650  60.1688700  48.5450290
  62.4617110  53.6791660  34.4447020  61.8371290  53.6751530  35.1700330
  62.3747230  52.8122620  34.0482990  61.3834190  54.6028290  41.4230790
  61.6806520  55.5091120  41.3422810  61.9319750  54.1147070  40.8090360
  59.1372510  59.1814530  37.2922440  58.9113430  58.9651700  38.1969060
  58.3565040  59.6142990  36.9468410  66.3670270  59.1877900  35.8913090
  65.7679160  59.9113700  35.7076710  66.9149880  59.1254680  35.1089540
  61.5771720  60.0800110  47.9582710  61.4815320  59.1394840  47.8083110
  62.4203700  60.3015180  47.5630780  64.9735140  57.8241440  37.9216370
  65.3664710  58.1413640  37.1085060  65.3351990  56.9453320  38.0360890
  56.7082260  56.4913780  46.1116490  56.3145650  57.3388990  46.3189270
  56.0200660  55.8540150  46.3025130  63.2827310  56.5748750  49.1813230
  62.5925630  56.3820950  49.8159320  64.0259610  56.8583390  49.7137530
  54.1969540  58.3562360  31.3549290  54.1144210  59.2993120  31.4964280
  53.8452600  58.2137270  30.4761640  65.5590280  60.4147190  42.0167150
  64.8271400  60.9234000  42.3657250  65.1614620  59.5977170  41.7155930
  61.9967670  57.0901390  40.4219640  62.0003730  56.6491340  39.5724180
  62.8918790  57.4118720  40.5291460  57.8470050  56.9727880  39.3813850
  57.5070100  57.4503110  40.1380900  57.0847370  56.5193000  39.0214950
  62.0587820  58.0913470  33.4126400  62.1800640  58.0499950  34.3612220
  61.6736330  58.9537620  33.2573130  66.0216190  55.8680870  41.4290090
  66.0388930  56.3189520  42.2731940  65.7731770  54.9686510  41.6423530
  61.0709320  60.4014610  32.8109700  60.5026220  59.9532860  32.1845610
  61.7798320  60.7607390  32.2774850  69.4486940  53.2813050  47.2676470
  69.7732710  52.5502710  47.7934450  69.4843450  52.9626690  46.3657460
  56.1478500  64.3026630  46.6876430  55.7633290  63.6620300  47.2859390
  56.4590690  65.0062750  47.2571160  62.2975640  61.1503170  42.1685050
  62.6645770  60.6761740  42.9146390  62.1080700  62.0244740  42.5093390
  55.1616130  55.8946860  38.2978520  54.8763050  55.5302530  39.1357140
  55.0994990  55.1627320  37.6841660  60.0875010  60.1911810  44.4869260
  59.7832080  61.0703790  44.7119620  61.0421470  60.2511600  44.5226700
  58.6156800  64.3972800  35.0836110  57.8419060  63.8570420  34.9234830
  59.3451430  63.8779410  34.7453870  69.3744780  63.3938160  40.8762500
  70.0943900  63.8893450  40.4858610  69.1726600  62.7156050  40.2316370
  64.8354720  54.7876120  35.0191890  64.0219330  54.2889290  34.9437200
  64.6416670  55.6274370  34.6028240  64.7563580  63.4647220  46.7631500
  64.6900890  62.5442890  46.5089090  64.1268720  63.5622660  47.4776140
  67.5503110  59.1595770  33.3154050  68.4382730  59.4713000  33.1405390
  67.5208200  58.2868020  32.9234630  58.6594200  64.0653180  38.7214920
  59.1772870  63.2621440  38.6671810  58.2078220  64.0032320  39.5631750
  63.5463700  65.3319460  33.9942220  63.8879400  66.0761690  33.4985540
  62.7176410  65.6450580  34.3567050  56.1438740  61.0314550  45.6340620
  55.7853680  61.6968400  46.2213960  55.8493300  60.1998100  46.0053240
  59.3451860  61.4898790  48.5180170  59.0452000  61.6355970  47.6207990
  60.1163100  60.9304080  48.4253560  64.6880310  66.2867790  46.5135300
  64.7024850  65.3548750  46.2954210  63.9805410  66.3727550  47.1525070
  69.8217380  60.4707610  32.7833910  69.7381100  60.9021830  31.9330350
  70.5411570  60.9305960  33.2160730  70.8991520  62.9275130  45.8603880
  70.1739710  63.5203910  45.6633270  71.4266980  62.9198670  45.0617250
  70.8504630  67.3249870  35.5116040  70.2080790  66.6705490  35.7859760
  70.4635290  67.7304960  34.7356710  66.4291110  64.6535300  39.3587730
  66.7814930  64.0563430  38.6989100  65.5453440  64.3279530  39.5295980
  62.5154390  65.4132990  36.7658140  63.2025520  65.9602200  37.1465730
  61.7286810  65.9573720  36.8007750  54.6546790  61.0305810  32.2575220
  55.5241640  61.3130610  32.5411140  54.1637110  61.8441680  32.1424030
  61.8181600  62.4179020  36.3783500  62.2744380  63.2284270  36.6043690
  61.4669810  62.1002160  37.2101990  64.1214210  67.9285360  43.6075800
  64.7656430  68.1344740  44.2849220  64.4843650  67.1673760  43.1546650
  57.7193380  52.7616670  36.8506020  57.5908010  52.7534570  37.7990940
  56.8955400  53.0999760  36.4997030  65.3946290  65.9317710  42.3253250
  66.0368520  65.2310870  42.4385420  65.9195640  66.7116150  42.1450140
  69.2402010  66.2166330  32.0492390  69.0139590  65.4996770  32.6417030
  68.8498210  65.9678770  31.2114140  67.1683910  66.7312610  45.5289310
  67.5040150  67.3179300  46.2067230  66.2484250  66.6005320  45.7587100
  55.0218040  70.2433190  32.8236850  55.3815680  70.8422530  32.1694120
  54.8810380  70.7893080  33.5971880  68.8218260  64.1338270  33.7106550
  68.5339960  64.5950960  34.4984430  69.6170430  63.6736040  33.9790770
  55.0059900  68.5088050  47.2979250  55.1151020  67.5682790  47.1574640
  54.3540460  68.7742800  46.6492980  62.9972490  66.7803940  48.6977370
  62.6769360  66.0613180  49.2423060  62.3230850  67.4559010  48.7713430
  61.0386660  67.6264390  33.6410520  61.0296760  68.3594080  33.0255030
  60.1185020  67.3795970  33.7337480  56.6393300  62.8479280  34.3857280
  56.0321250  63.5878180  34.3952580  57.1142650  62.9378640  33.5595480
  66.2126090  57.0130100  44.0614170  66.5806910  56.1925310  44.3893740
  65.3524290  57.0731990  44.4769820  69.5788120  55.9687040  34.8701730
  68.9501280  56.0732710  34.1559960  69.0840040  56.1883820  35.6595610
  64.0246260  67.6892630  32.3035710  64.1258240  67.4856620  31.3737690
  63.1248000  67.4350910  32.5083490  61.5472150  58.2472990  36.2859610
  60.8388300  58.7159330  36.7273220  61.8316630  57.5895000  36.9204800
  63.1728080  59.6669690  44.2852140  63.6713330  60.1415510  44.9503990
  63.3151030  58.7433210  44.4922170  65.5787580  54.9723650  37.7255400
  65.4555360  54.9909780  36.7764910  66.5272140  55.0202590  37.8453800
  62.6664370  70.2078950  36.9983380  62.9205870  70.1700340  36.0762750
  61.7176850  70.0812280  36.9911630  59.7507170  56.5558070  33.6610320
  60.5997700  56.9928220  33.5950510  59.3838440  56.8678330  34.4882380
  70.3794940  55.8837650  45.1280530  69.8768540  56.6243050  45.4674340
  71.1951600  56.2721650  44.8117320  68.6716950  61.1270830  38.5741890
  67.7307090  61.1421060  38.7489580  68.9861020  60.3406790  39.0202190
  58.6498590  62.8090430  32.1345850  59.4161860  62.6971790  32.6971280
  58.7273280  62.1128400  31.4822620  57.3445350  60.2415500  32.8178740
  57.4248940  59.2943010  32.9296140  58.2365100  60.5722380  32.9239400
  70.6742530  68.2979680  40.2496150  70.7989950  69.1210850  40.7219960
  71.5408090  68.0870410  39.9020300  58.1460060  70.3910890  39.9213280
  58.8822540  69.8426350  40.1921850  58.5300980  71.2566900  39.7819270
  55.0305540  66.4584460  35.7954790  54.1045320  66.7005600  35.7860200
  55.4961970  67.2858720  35.6739540  57.1518340  69.5756960  49.1098860
  57.9531070  69.8969010  49.5234260  56.6370160  69.2152540  49.8318770
  61.2562370  69.5641200  31.7438850  62.0490980  69.8530030  31.2920640
  60.7366720  69.1333370  31.0651330  65.9882970  65.6836830  49.0574270
  65.3821130  65.7068430  48.3170020  65.6837080  64.9519870  49.5941520
  67.4183340  69.4117120  47.6683680  68.3705090  69.3275140  47.6183920
  67.2711560  70.0758830  48.3417470  70.3092540  68.7911330  33.1675590
  70.0234050  68.3776470  32.3529770  70.1112090  69.7199040  33.0476110
  54.8716150  62.0630420  48.0534910  55.3755170  61.4837700  48.6251140
  54.1323570  62.3470650  48.5911280  61.7739770  64.7844610  31.6081200
  61.6690410  64.1696960  32.3342580  61.6063990  64.2610500  30.8244210
  61.9254090  63.4701410  47.5870430  61.1599760  64.0386410  47.5025100
  62.1070050  63.1777620  46.6938660  65.0142500  63.8464640  32.2123190
  64.4652600  64.2933940  32.8565930  65.6361760  63.3413890  32.7360860
  69.0677440  65.2006740  48.1445450  69.8086910  65.5382500  47.6412910
  68.3050120  65.3698800  47.5915220  56.9039230  60.2060010  48.9484980
  56.9444570  59.9073880  49.8570210  57.7584730  60.6067620  48.7892500
  60.6817620  62.8055560  34.1088490  61.1034040  62.6395430  34.9519880
  60.8068460  61.9955790  33.6143630  58.8445040  58.7852110  46.9159470
  58.3141500  58.2943060  46.2882810  59.5133110  59.2136310  46.3817400
  63.1945260  61.8293170  31.3565590  63.7150920  61.1142190  30.9906740
  63.8413660  62.4679040  31.6566100  67.7423100  63.2521570  46.6800660
  68.1564120  63.4066650  47.5291080  66.8074100  63.3776790  46.8426440
  68.2145270  60.5917730  48.6839810  68.7966040  59.8370050  48.5960290
  68.3907040  61.1225170  47.9071290  59.3317340  55.7514480  46.9956760
  59.2374210  55.1335230  46.2707630  58.7514730  56.4780770  46.7686670
  62.0978780  54.3087720  44.0284150  61.6496080  54.3311980  43.1829700
  61.4643980  53.9106740  44.6254450  62.5038330  63.2042050  44.6496590
  62.9226440  64.0474780  44.4772830  61.5846960  63.3414090  44.4203370
  64.8402230  60.9358230  46.0334430  64.9598440  60.3399370  46.7729270
  65.6996230  60.9727920  45.6135730  67.1790130  61.4895420  44.6096940
  66.6525350  62.0138040  44.0062080  67.5221470  62.1222810  45.2406670
  59.5776520  58.8788790  31.0546650  59.3765580  58.0156150  31.4159990
  59.4068570  58.7922150  30.1168250  60.3545750  69.5095060  45.7654320
  59.8166840  70.2341120  45.4463020  60.6079710  69.0325400  44.9751660
  61.6071000  57.4779580  47.2910250  62.1970690  57.1695430  47.9788070
  60.7891240  57.0059330  47.4470150  66.4264430  57.0945390  47.5243270
  65.7379950  56.4326930  47.4593260  67.1470450  56.6483660  47.9691730
  67.0564830  53.6897020  33.5833530  67.3367120  52.8464920  33.9392950
  66.2830560  53.9220130  34.0972280  58.3759320  55.9789410  31.0424530
  58.6785220  55.9856840  30.1343680  59.1153910  55.6287270  31.5392190
  63.2107960  70.7446270  46.0240970  63.1366660  71.6481410  46.3313340
  62.3086800  70.4258170  45.9963040  61.5944250  54.9224030  32.0280730
  61.2466250  54.2448020  31.4483180  61.7957020  54.4613540  32.8424120
  63.7593290  69.9104780  33.6467330  64.6544080  70.2489750  33.6686090
  63.7910920  69.1884190  33.0191610  57.3989450  65.2831830  31.8754330
  57.8364320  65.8261500  32.5311910  57.8837180  64.4578780  31.8850670
  54.6135250  68.0720860  39.3274590  54.9438260  67.2041920  39.0953230
  55.0426250  68.2779380  40.1579550  59.2097170  66.4029870  36.9876560
  58.9092710  66.2794840  37.8880470  59.1034660  65.5438460  36.5792290
  55.1025460  68.9391450  42.0656220  54.6656450  69.1192250  42.8980370
  55.6703140  69.6966070  41.9237940  70.7387640  68.4408450  46.3533530
  70.1389630  68.5001010  45.6097450  70.8681540  67.5013430  46.4830380
  71.9789090  66.1826270  31.6903240  71.1482050  66.2502920  32.1610470
  72.1560920  67.0730390  31.3870100  71.4345550  62.9273750  34.1937440
  72.1964460  63.4970400  34.2997130  71.4499920  62.3600950  34.9645750
  54.9349890  61.4511680  38.4245100  54.2798730  61.1823320  37.7804800
  55.7727840  61.3416160  37.9747080  72.4405520  63.7823850  39.0379370
  72.8114350  62.9991170  38.6315340  73.0807450  64.4712950  38.8596670
  69.4239280  65.1660430  44.4509690  68.6099120  65.5957590  44.7135480
  69.8313480  65.7778840  43.8378740  71.4864720  63.2208120  31.3509960
  71.7613560  64.1287000  31.2229180  71.2975460  63.1570650  32.2871950
  67.8840330  56.2452970  32.6463590  68.3025210  56.0583950  31.8060250
  67.5776390  55.3932020  32.9566520  71.3830060  61.1577110  36.3439390
  71.0073660  60.3905040  35.9120680  70.6533180  61.5399810  36.8314320
  55.9725820  61.8364250  42.9648440  56.3398860  61.7491650  43.8444460
  55.4036640  61.0730800  42.8655300  70.7729680  60.3048630  45.9778910
  70.5415770  60.0761380  45.0776860  71.0334230  61.2248180  45.9323800
  55.5241820  58.7473340  46.8706860  54.6297870  58.7140100  47.2100570
  56.0639370  58.9460130  47.6358110  69.2117750  55.5305060  48.7558610
  70.0887930  55.5388460  49.1392610  69.2238590  54.7935900  48.1450960
  54.1487970  58.6610610  34.3670430  53.2452050  58.9240810  34.1922090
  54.6328590  58.9321780  33.5870390  70.6581020  59.3834600  39.6446630
  71.1818500  58.8897250  39.0136800  71.2440440  59.5184960  40.3894200
  70.8370740  59.4674470  43.1666180  69.8873450  59.4338010  43.2811170
  71.0183750  60.3774580  42.9315950  56.6915180  57.7176150  32.2764810
  57.4006880  57.2959370  31.7912090  55.9755120  57.7851380  31.6448160
  56.3389340  53.7715480  31.3167460  57.0617470  54.3124420  31.6348680
  56.6113860  53.4978900  30.4409000  70.1480990  58.6407950  35.5839040
  70.6440110  58.4078820  36.3687920  69.9497060  57.8019790  35.1676680
  71.5768150  57.2768900  38.1176720  71.4667430  57.1224940  39.0558990
  72.3375740  56.7489840  37.8752130  69.9233870  53.2163030  44.5759720
  70.5606090  53.8297170  44.9418910  70.0708760  53.2523690  43.6308950
  72.4658420  55.1076820  31.3582860  73.3907730  54.9758000  31.1501150
  72.4434210  55.1869640  32.3119310  72.5396910  55.8787480  33.9839570
  71.7448410  55.8132600  34.5132480  72.7440190  56.8138120  33.9724920
  69.4815330  69.9179030  37.9777960  70.0774400  69.5963600  37.3012380
  69.7393480  69.4450850  38.7691230  57.3877900  66.3496940  48.1268590
  57.3447530  65.9789850  49.0083050  57.5188910  67.2874510  48.2670410
  61.0883930  67.9056530  43.7278310  60.8475290  68.1731090  42.8408830
  62.0286570  68.0762260  43.7829170  63.2938350  54.3689220  47.4834820
  63.2327240  54.9611050  48.2330230  64.2338730  54.2615180  47.3385080
  65.9312910  54.0259280  47.1227110  66.5453320  54.3438570  46.4608190
  66.4762470  53.5407870  47.7422970  72.3488090  69.9250910  44.5288950
  71.8546370  70.3219780  43.8116080  71.7401380  69.3000120  44.9226230
  57.2265930  69.2959190  45.2466370  56.6326250  69.1643890  45.9856410
  57.2189770  68.4597330  44.7808470  66.6720950  52.5891420  43.4496400
  65.7980790  52.9226530  43.2469330  66.5631700  52.1164600  44.2748270
  67.5792930  54.7962290  44.8338120  67.2506290  53.9814050  44.4539850
  68.5275230  54.7532100  44.7103810  70.0327540  70.5674330  41.8075690
  69.5730510  71.3190140  41.4333710  69.4040000  69.8480800  41.7490490
  56.8578160  66.6617570  44.1974410  56.1312220  66.0422860  44.1300360
  56.9187310  67.0558180  43.3272490  60.4623260  68.8762570  40.9823820
  60.9788280  68.2649930  40.4572080  61.1120640  69.3791350  41.4734830
  63.2018760  69.7671060  41.8092800  63.4896570  69.5125360  40.9325810
  63.7141980  69.2148420  42.3998370  64.4195770  53.5061260  42.3889310
  63.6367560  53.9806760  42.6686070  64.1258700  52.6016090  42.2802490
  68.9716840  54.2084360  40.4338400  69.4124930  54.1529460  39.5860000
  68.7024430  55.1242370  40.5048580  70.8355410  53.8399600  38.4447220
  70.7743810  52.8960820  38.2978240  71.6147440  53.9479690  38.9900680
  55.1408160  69.9791960  37.4071170  54.9730200  69.3462640  38.1053060
  54.2742670  70.1851360  37.0565360  62.3049990  55.9248010  37.9005340
  61.4924500  55.5504900  37.5601220  62.8091630  55.1693090  38.2026530
  66.8074970  52.5890460  39.1388410  67.4104340  53.1610670  39.6136930
  66.0667960  53.1529900  38.9162310  69.9509570  52.9912020  34.4128690
  70.1460200  53.8895470  34.6796120  69.1639440  52.7599100  34.9061640
  56.7470860  68.6725190  34.8521310  56.2218480  69.0533220  34.1483270
  56.6715440  69.2975960  35.5731020  58.1361330  54.3372790  33.4505000
  58.6654090  53.5502590  33.3212950  58.7689650  55.0163980  33.6840530
  60.3299170  54.0747930  36.5050390  59.7001910  53.3735240  36.6720520
  59.7904310  54.8352060  36.2883550  63.2691120  70.6887160  49.1761000
  64.1958430  70.4531430  49.2196960  63.2541550  71.5159160  48.6947030
  71.5036180  70.2312730  36.1735250  71.6788370  69.5450470  35.5296170
  70.8057750  70.7559780  35.7811920  60.4554730  53.3531910  48.9402880
  60.1739000  53.8565510  48.1763700  60.8374430  52.5553660  48.5745010
  59.3463830  70.6207570  33.7270560  60.0782650  70.3366850  33.1794450
  59.6057500  70.3820850  34.6169940  58.5078620  66.7372300  33.7316890
  57.8787500  67.2057400  34.2802720  58.6226450  65.8921520  34.1663080
  67.0570190  52.7685490  49.5183350  66.9435640  53.0880100  50.4134870
  67.8739930  53.1698000  49.2220630  69.8368680  69.9157020  49.0002040
  70.6294000  69.4206250  48.7928000  70.1301830  70.5947160  49.6077650
  65.9628340  60.7877960  19.8818090  65.8822390  59.8732570  19.6109800
  65.5492760  61.2845030  19.1757800  64.0946380  62.5656980  21.7627360
  63.3188480  62.0857420  22.0525930  64.7459310  61.8862630  21.5883520
  58.1112210  62.8776790  22.6403120  57.2797090  62.6225500  23.0399630
  58.7193190  62.9487560  23.3761040  68.1153810  66.9717170  20.5426490
  67.6535340  66.2004410  20.8713660  68.9279360  66.9983240  21.0478940
  58.0913470  66.9116880  22.8361140  58.3941510  66.0214620  22.6571360
  58.8357060  67.4687100  22.6083390  56.5204160  57.8378680  16.4245510
  55.6320860  58.1794650  16.3225390  56.8045350  57.6379000  15.5326340
  54.4837170  60.4384330  22.3085210  55.0553280  59.6706530  22.3088850
  54.4838710  60.7373090  21.3991820  64.3417120  69.2575180  20.1630480
  63.7228560  69.7132680  19.5924920  65.1968900  69.4126640  19.7620180
  63.5355370  65.2414170  21.7697520  63.4663650  64.3004110  21.6086650
  64.2975230  65.3315580  22.3420090  55.7262040  55.8468690  24.0954140
  55.5464880  54.9494440  24.3756900  55.3242120  56.3940560  24.7701090
  64.5660540  58.0484550  21.9966450  64.9425360  57.1756430  21.8840120
  64.4680050  58.3843250  21.1056890  58.6965550  56.4210180  17.4583890
  58.8032300  57.3213910  17.7652650  57.7857910  56.3728150  17.1678540
  68.3484660  55.5434990  18.9294790  69.1694280  55.0531560  18.9720270
  68.3818740  56.1332650  19.6826630  56.3448710  58.3429190  22.7036480
  57.0258820  58.6067560  23.3223880  56.0296760  57.5030060  23.0374490
  60.5373280  59.3896550  21.7909070  61.0451500  59.8877520  22.4314090
  61.0686520  58.6131750  21.6148430  72.6384210  57.5601740  25.4938420
  71.9336380  57.9483450  24.9753530  72.9042130  58.2552030  26.0959350
  58.8209380  54.0295110  26.0572490  58.8227820  54.5467500  25.2518390
  57.9913690  53.5525290  26.0342420  65.2080470  64.1414420  17.5562390
  64.5897740  64.6063870  16.9925110  65.7203720  64.8341900  17.9731900
  60.0712230  63.6690290  24.2345990  59.7381610  64.2959210  24.8767060
  60.2478910  64.1952170  23.4547660  68.5846140  57.4835370  21.7022330
  67.8801710  57.7720260  22.2825440  68.9458300  58.2935480  21.3421890
  58.5024710  55.7405070  24.0642940  58.8441520  56.5847120  23.7696810
  57.5640520  55.8888810  24.1808280  59.2831330  65.6371090  26.0495170
  59.9005330  66.3122170  25.7679620  58.4224450  66.0459070  25.9582670
  54.5763670  64.8270950  14.9302020  54.1991650  65.3158050  14.1986920
  54.8336740  65.4996230  15.5608550  70.2008920  67.1010500  23.9649810
  69.5172440  67.7709610  23.9566480  70.7403210  67.2991150  23.1994670
  71.6533060  56.9290160  22.0931540  70.7057970  56.9629140  22.2246970
  71.9783050  57.7429110  22.4780900  62.1852600  53.2287340  20.3887530
  62.4927580  52.6734230  19.6723030  61.2553300  53.3631800  20.2060520
  67.7367660  68.9454630  22.6794990  67.7494820  68.5416920  21.8117250
  67.1842880  69.7201920  22.5756420  69.0313080  65.6670850  17.7685160
  68.9209410  64.7245180  17.8934580  69.0281330  66.0286490  18.6547920
  67.1353100  63.8484470  24.0077600  67.5521890  63.6344580  23.1731060
  67.8592920  64.1057260  24.5786220  64.5733360  61.2936170  17.1247650
  63.6462640  61.2273550  17.3536120  64.7258180  62.2316300  17.0102890
  64.5602440  57.5653170  14.1214810  63.6206110  57.7267130  14.2067270
  64.8785700  58.2838850  13.5750800  71.0815200  62.2471690  24.0993840
  70.2533830  62.3164780  23.6243970  71.6765680  62.8326000  23.6309670
  68.6030650  62.8556470  17.6282900  67.9843070  62.5176020  16.9809200
  68.5855100  62.2116230  18.3362090  68.0457210  59.0341010  25.0448710
  67.6328390  59.8594720  25.2988700  67.3133160  58.4486050  24.8525070
  60.1790000  61.8200910  19.9067380  59.7747000  61.1078160  19.4113280
  60.2653120  61.4754150  20.7955420  60.6471700  65.5068470  22.0706590
  60.3499990  64.9013940  21.3914370  61.5971520  65.5445780  21.9595950
  58.8918620  58.5944120  23.6866420  59.4433210  58.7039460  22.9119670
  59.4062130  58.9681720  24.4021650  68.7357310  69.0800340  25.7329690
  68.2587870  69.8872530  25.5402300  68.0519100  68.4278670  25.8855900
  59.7390130  65.2450160  28.7214390  58.8418660  65.4690130  28.9687790
  59.7643000  65.3685100  27.7725790  66.7795350  62.0943280  14.6355650
  67.2188630  61.2565710  14.4893470  67.4923770  62.7272680  14.7219790
  58.5661350  62.1163480  27.2971760  58.4269120  62.9886280  27.6659160
  57.6842710  61.7736290  27.1519700  64.8890730  67.0339350  18.6036890
  65.3286640  67.7763680  18.1892280  64.8277620  67.2765920  19.5275850
  60.3641700  68.0585180  29.5056910  60.3357130  68.4628130  28.6385340
  60.2006670  67.1295540  29.3428510  70.3612490  53.3486090  12.9496690
  70.0485150  53.4412920  13.8495760  71.1224960  53.9267120  12.8994120
  56.8794630  60.7145890  17.4074030  56.7592230  61.4407980  16.7955300
  56.5695520  59.9448800  16.9301940  72.3156520  68.8412280  30.8021080
  72.7916240  69.3195170  31.4810160  72.9363680  68.7729770  30.0766580
  54.5180000  63.8861030  23.2142670  54.5960420  64.0209800  22.2698390
  55.1321680  63.1776920  23.4070790  55.7627630  65.5861220  19.6248850
  55.3555710  65.7275810  18.7702450  56.6540640  65.3021380  19.4220060
  71.7189770  66.0325130  27.9621090  71.8452830  65.7937010  27.0438270
  71.7611150  65.2009670  28.4343170  65.5806510  69.7353130  26.5315900
  66.0951180  69.6461140  27.3338330  64.7375590  70.0812830  26.8243810
  67.5560910  70.0208470  15.9599900  67.3962050  69.7311410  16.8581730
  67.3907620  69.2448600  15.4245130  60.0349290  69.8007000  17.7371520
  59.8591770  68.8842540  17.5239320  59.1805030  70.1594290  17.9769320
  67.2587040  67.5296030  14.5197900  66.5652200  67.5273320  13.8600180
  68.0009900  67.1055350  14.0892070  66.8236970  69.1558740  18.5946390
  67.2793920  68.3748120  18.9085010  67.1629490  69.8665560  19.1387570
  71.5713780  58.0857590  28.9270830  70.9558050  58.5937260  28.3986290
  71.2510200  57.1855920  28.8696770  54.5739520  64.9275200  25.7537130
  54.7370560  64.4580560  24.9356500  55.0391970  64.4198760  26.4185970
  59.3458290  54.0580960  20.7897700  58.9026440  54.8390500  20.4582220
  59.9043280  54.3810850  21.4968640  63.6328100  56.9249480  26.3933020
  63.1707470  57.1332500  27.2052960  63.2306210  56.1108830  26.0903690
  68.6332610  58.1458430  27.5229680  67.7826200  57.8464180  27.8438750
  68.4734400  58.3900440  26.6113500  65.7282320  59.6460180  29.6228470
  66.0535730  58.8123930  29.2830700  66.5162650  60.1688700  29.7706800
  62.4617110  53.6791660  15.6703530  61.8371290  53.6751530  16.3956840
  62.3747230  52.8122620  15.2739500  61.3834190  54.6028290  22.6487300
  61.6806520  55.5091120  22.5679320  61.9319750  54.1147070  22.0346870
  59.1372510  59.1814530  18.5178950  58.9113430  58.9651700  19.4225570
  58.3565040  59.6142990  18.1724920  66.3670270  59.1877900  17.1169600
  65.7679160  59.9113700  16.9333220  66.9149880  59.1254680  16.3346050
  61.5771720  60.0800110  29.1839220  61.4815320  59.1394840  29.0339620
  62.4203700  60.3015180  28.7887290  64.9735140  57.8241440  19.1472880
  65.3664710  58.1413640  18.3341570  65.3351990  56.9453320  19.2617400
  56.7082260  56.4913780  27.3373000  56.3145650  57.3388990  27.5445780
  56.0200660  55.8540150  27.5281640  63.2827310  56.5748750  30.4069740
  62.5925630  56.3820950  31.0415830  64.0259610  56.8583390  30.9394040
  54.0099310  54.4142240  21.3703080  53.7212360  54.9845100  22.0828060
  54.7545070  53.9346690  21.7334310  54.1969540  58.3562360  12.5805800
  54.1144210  59.2993120  12.7220790  53.8452600  58.2137270  11.7018150
  65.5590280  60.4147190  23.2423660  64.8271400  60.9234000  23.5913760
  65.1614620  59.5977170  22.9412440  61.9967670  57.0901390  21.6476150
  62.0003730  56.6491340  20.7980690  62.8918790  57.4118720  21.7547970
  57.8470050  56.9727880  20.6070360  57.5070100  57.4503110  21.3637410
  57.0847370  56.5193000  20.2471460  62.0587820  58.0913470  14.6382910
  62.1800640  58.0499950  15.5868730  61.6736330  58.9537620  14.4829640
  66.0216190  55.8680870  22.6546600  66.0388930  56.3189520  23.4988450
  65.7731770  54.9686510  22.8680040  61.0709320  60.4014610  14.0366210
  60.5026220  59.9532860  13.4102120  61.7798320  60.7607390  13.5031360
  69.4486940  53.2813050  28.4932980  69.7732710  52.5502710  29.0190960
  69.4843450  52.9626690  27.5913970  56.1478500  64.3026630  27.9132940
  55.7633290  63.6620300  28.5115900  56.4590690  65.0062750  28.4827670
  62.2975640  61.1503170  23.3941560  62.6645770  60.6761740  24.1402900
  62.1080700  62.0244740  23.7349900  55.1616130  55.8946860  19.5235030
  54.8763050  55.5302530  20.3613650  55.0994990  55.1627320  18.9098170
  60.0875010  60.1911810  25.7125770  59.7832080  61.0703790  25.9376130
  61.0421470  60.2511600  25.7483210  58.6156800  64.3972800  16.3092620
  57.8419060  63.8570420  16.1491340  59.3451430  63.8779410  15.9710380
  69.3744780  63.3938160  22.1019010  70.0943900  63.8893450  21.7115120
  69.1726600  62.7156050  21.4572880  64.8354720  54.7876120  16.2448400
  64.0219330  54.2889290  16.1693710  64.6416670  55.6274370  15.8284750
  64.7563580  63.4647220  27.9888010  64.6900890  62.5442890  27.7345600
  64.1268720  63.5622660  28.7032650  67.5503110  59.1595770  14.5410560
  68.4382730  59.4713000  14.3661900  67.5208200  58.2868020  14.1491140
  58.6594200  64.0653180  19.9471430  59.1772870  63.2621440  19.8928320
  58.2078220  64.0032320  20.7888260  63.5463700  65.3319460  15.2198730
  63.8879400  66.0761690  14.7242050  62.7176410  65.6450580  15.5823560
  56.1438740  61.0314550  26.8597130  55.7853680  61.6968400  27.4470470
  55.8493300  60.1998100  27.2309750  59.3451860  61.4898790  29.7436680
  59.0452000  61.6355970  28.8464500  60.1163100  60.9304080  29.6510070
  64.6880310  66.2867790  27.7391810  64.7024850  65.3548750  27.5210720
  63.9805410  66.3727550  28.3781580  69.8217380  60.4707610  14.0090420
  69.7381100  60.9021830  13.1586860  70.5411570  60.9305960  14.4417240
  70.8991520  62.9275130  27.0860390  70.1739710  63.5203910  26.8889780
  71.4266980  62.9198670  26.2873760  70.8504630  67.3249870  16.7372550
  70.2080790  66.6705490  17.0116270  70.4635290  67.7304960  15.9613220
  66.4291110  64.6535300  20.5844240  66.7814930  64.0563430  19.9245610
  65.5453440  64.3279530  20.7552490  62.5154390  65.4132990  17.9914650
  63.2025520  65.9602200  18.3722240  61.7286810  65.9573720  18.0264260
  54.6546790  61.0305810  13.4831730  55.5241640  61.3130610  13.7667650
  54.1637110  61.8441680  13.3680540  61.8181600  62.4179020  17.6040010
  62.2744380  63.2284270  17.8300200  61.4669810  62.1002160  18.4358500
  64.1214210  67.9285360  24.8332310  64.7656430  68.1344740  25.5105730
  64.4843650  67.1673760  24.3803160  57.7193380  52.7616670  18.0762530
  57.5908010  52.7534570  19.0247450  56.8955400  53.0999760  17.7253540
  65.3946290  65.9317710  23.5509760  66.0368520  65.2310870  23.6641930
  65.9195640  66.7116150  23.3706650  69.2402010  66.2166330  13.2748900
  69.0139590  65.4996770  13.8673540  68.8498210  65.9678770  12.4370650
  67.1683910  66.7312610  26.7545820  67.5040150  67.3179300  27.4323740
  66.2484250  66.6005320  26.9843610  55.0218040  70.2433190  14.0493360
  55.3815680  70.8422530  13.3950630  54.8810380  70.7893080  14.8228390
  54.7187310  54.5207790  27.5369230  54.0045830  54.7204710  28.1421840
  55.1382350  53.7447360  27.9084030  68.8218260  64.1338270  14.9363060
  68.5339960  64.5950960  15.7240940  69.6170430  63.6736040  15.2047280
  55.0059900  68.5088050  28.5235760  55.1151020  67.5682790  28.3831150
  54.3540460  68.7742800  27.8749490  62.9972490  66.7803940  29.9233880
  62.6769360  66.0613180  30.4679570  62.3230850  67.4559010  29.9969940
  61.0386660  67.6264390  14.8667030  61.0296760  68.3594080  14.2511540
  60.1185020  67.3795970  14.9593990  56.6393300  62.8479280  15.6113790
  56.0321250  63.5878180  15.6209090  57.1142650  62.9378640  14.7851990
  66.2126090  57.0130100  25.2870680  66.5806910  56.1925310  25.6150250
  65.3524290  57.0731990  25.7026330  69.5788120  55.9687040  16.0958240
  68.9501280  56.0732710  15.3816470  69.0840040  56.1883820  16.8852120
  64.0246260  67.6892630  13.5292220  64.1258240  67.4856620  12.5994200
  63.1248000  67.4350910  13.7340000  61.5472150  58.2472990  17.5116120
  60.8388300  58.7159330  17.9529730  61.8316630  57.5895000  18.1461310
  63.1728080  59.6669690  25.5108650  63.6713330  60.1415510  26.1760500
  63.3151030  58.7433210  25.7178680  65.5787580  54.9723650  18.9511910
  65.4555360  54.9909780  18.0021420  66.5272140  55.0202590  19.0710310
  62.6664370  70.2078950  18.2239890  62.9205870  70.1700340  17.3019260
  61.7176850  70.0812280  18.2168140  59.7507170  56.5558070  14.8866830
  60.5997700  56.9928220  14.8207020  59.3838440  56.8678330  15.7138890
  70.3794940  55.8837650  26.3537040  69.8768540  56.6243050  26.6930850
  71.1951600  56.2721650  26.0373830  68.6716950  61.1270830  19.7998400
  67.7307090  61.1421060  19.9746090  68.9861020  60.3406790  20.2458700
  58.6498590  62.8090430  13.3602360  59.4161860  62.6971790  13.9227790
  58.7273280  62.1128400  12.7079130  57.3445350  60.2415500  14.0435250
  57.4248940  59.2943010  14.1552650  58.2365100  60.5722380  14.1495910
  70.6742530  68.2979680  21.4752660  70.7989950  69.1210850  21.9476470
  71.5408090  68.0870410  21.1276810  58.1460060  70.3910890  21.1469790
  58.8822540  69.8426350  21.4178360  58.5300980  71.2566900  21.0075780
  55.0305540  66.4584460  17.0211300  54.1045320  66.7005600  17.0116710
  55.4961970  67.2858720  16.8996050  57.1518340  69.5756960  30.3355370
  57.9531070  69.8969010  30.7490770  56.6370160  69.2152540  31.0575280
  61.2562370  69.5641200  12.9695360  62.0490980  69.8530030  12.5177150
  60.7366720  69.1333370  12.2907840  65.9882970  65.6836830  30.2830780
  65.3821130  65.7068430  29.5426530  65.6837080  64.9519870  30.8198030
  67.4183340  69.4117120  28.8940190  68.3705090  69.3275140  28.8440430
  67.2711560  70.0758830  29.5673980  70.3092540  68.7911330  14.3932100
  70.0234050  68.3776470  13.5786280  70.1112090  69.7199040  14.2732620
  54.8716150  62.0630420  29.2791420  55.3755170  61.4837700  29.8507650
  54.1323570  62.3470650  29.8167790  61.7739770  64.7844610  12.8337710
  61.6690410  64.1696960  13.5599090  61.6063990  64.2610500  12.0500720
  61.9254090  63.4701410  28.8126940  61.1599760  64.0386410  28.7281610
  62.1070050  63.1777620  27.9195170  65.0142500  63.8464640  13.4379700
  64.4652600  64.2933940  14.0822440  65.6361760  63.3413890  13.9617370
  69.0677440  65.2006740  29.3701960  69.8086910  65.5382500  28.8669420
  68.3050120  65.3698800  28.8171730  56.9039230  60.2060010  30.1741490
  56.9444570  59.9073880  31.0826720  57.7584730  60.6067620  30.0149010
  60.6817620  62.8055560  15.3345000  61.1034040  62.6395430  16.1776390
  60.8068460  61.9955790  14.8400140  58.8445040  58.7852110  28.1415980
  58.3141500  58.2943060  27.5139320  59.5133110  59.2136310  27.6073910
  63.1945260  61.8293170  12.5822100  63.7150920  61.1142190  12.2163250
  63.8413660  62.4679040  12.8822610  67.7423100  63.2521570  27.9057170
  68.1564120  63.4066650  28.7547590  66.8074100  63.3776790  28.0682950
  68.2145270  60.5917730  29.9096320  68.7966040  59.8370050  29.8216800
  68.3907040  61.1225170  29.1327800  59.3317340  55.7514480  28.2213270
  59.2374210  55.1335230  27.4964140  58.7514730  56.4780770  27.9943180
  62.0978780  54.3087720  25.2540660  61.6496080  54.3311980  24.4086210
  61.4643980  53.9106740  25.8510960  62.5038330  63.2042050  25.8753100
  62.9226440  64.0474780  25.7029340  61.5846960  63.3414090  25.6459880
  64.8402230  60.9358230  27.2590940  64.9598440  60.3399370  27.9985780
  65.6996230  60.9727920  26.8392240  67.1790130  61.4895420  25.8353450
  66.6525350  62.0138040  25.2318590  67.5221470  62.1222810  26.4663180
  59.5776520  58.8788790  12.2803160  59.3765580  58.0156150  12.6416500
  59.4068570  58.7922150  11.3424760  60.3545750  69.5095060  26.9910830
  59.8166840  70.2341120  26.6719530  60.6079710  69.0325400  26.2008170
  61.6071000  57.4779580  28.5166760  62.1970690  57.1695430  29.2044580
  60.7891240  57.0059330  28.6726660  66.4264430  57.0945390  28.7499780
  65.7379950  56.4326930  28.6849770  67.1470450  56.6483660  29.1948240
  67.0564830  53.6897020  14.8090040  67.3367120  52.8464920  15.1649460
  66.2830560  53.9220130  15.3228790  58.3759320  55.9789410  12.2681040
  58.6785220  55.9856840  11.3600190  59.1153910  55.6287270  12.7648700
  63.2107960  70.7446270  27.2497480  63.1366660  71.6481410  27.5569850
  62.3086800  70.4258170  27.2219550  61.5944250  54.9224030  13.2537240
  61.2466250  54.2448020  12.6739690  61.7957020  54.4613540  14.0680630
  63.7593290  69.9104780  14.8723840  64.6544080  70.2489750  14.8942600
  63.7910920  69.1884190  14.2448120  57.3989450  65.2831830  13.1010840
  57.8364320  65.8261500  13.7568420  57.8837180  64.4578780  13.1107180
  54.6135250  68.0720860  20.5531100  54.9438260  67.2041920  20.3209740
  55.0426250  68.2779380  21.3836060  59.2097170  66.4029870  18.2133070
  58.9092710  66.2794840  19.1136980  59.1034660  65.5438460  17.8048800
  55.1025460  68.9391450  23.2912730  54.6656450  69.1192250  24.1236880
  55.6703140  69.6966070  23.1494450  70.7387640  68.4408450  27.5790040
  70.1389630  68.5001010  26.8353960  70.8681540  67.5013430  27.7086890
  71.9789090  66.1826270  12.9159750  71.1482050  66.2502920  13.3866980
  72.1560920  67.0730390  12.6126610  71.4345550  62.9273750  15.4193950
  72.1964460  63.4970400  15.5253640  71.4499920  62.3600950  16.1902260
  54.9349890  61.4511680  19.6501610  54.2798730  61.1823320  19.0061310
  55.7727840  61.3416160  19.2003590  72.4405520  63.7823850  20.2635880
  72.8114350  62.9991170  19.8571850  73.0807450  64.4712950  20.0853180
  69.4239280  65.1660430  25.6766200  68.6099120  65.5957590  25.9391990
  69.8313480  65.7778840  25.0635250  71.4864720  63.2208120  12.5766470
  71.7613560  64.1287000  12.4485690  71.2975460  63.1570650  13.5128460
  67.8840330  56.2452970  13.8720100  68.3025210  56.0583950  13.0316760
  67.5776390  55.3932020  14.1823030  71.3830060  61.1577110  17.5695900
  71.0073660  60.3905040  17.1377190  70.6533180  61.5399810  18.0570830
  55.9725820  61.8364250  24.1904950  56.3398860  61.7491650  25.0700970
  55.4036640  61.0730800  24.0911810  70.7729680  60.3048630  27.2035420
  70.5415770  60.0761380  26.3033370  71.0334230  61.2248180  27.1580310
  55.5241820  58.7473340  28.0963370  54.6297870  58.7140100  28.4357080
  56.0639370  58.9460130  28.8614620  69.2117750  55.5305060  29.9815120
  70.0887930  55.5388460  30.3649120  69.2238590  54.7935900  29.3707470
  54.1487970  58.6610610  15.5926940  53.2452050  58.9240810  15.4178600
  54.6328590  58.9321780  14.8126900  70.6581020  59.3834600  20.8703140
  71.1818500  58.8897250  20.2393310  71.2440440  59.5184960  21.6150710
  70.8370740  59.4674470  24.3922690  69.8873450  59.4338010  24.5067680
  71.0183750  60.3774580  24.1572460  56.6915180  57.7176150  13.5021320
  57.4006880  57.2959370  13.0168600  55.9755120  57.7851380  12.8704670
  56.3389340  53.7715480  12.5423970  57.0617470  54.3124420  12.8605190
  56.6113860  53.4978900  11.6665510  70.1480990  58.6407950  16.8095550
  70.6440110  58.4078820  17.5944430  69.9497060  57.8019790  16.3933190
  56.0281530  53.0221670  22.4446590  56.6757720  52.4719050  22.0041750
  56.4483370  53.2764820  23.2662400  71.5768150  57.2768900  19.3433230
  71.4667430  57.1224940  20.2815500  72.3375740  56.7489840  19.1008640
  69.9233870  53.2163030  25.8016230  70.5606090  53.8297170  26.1675420
  70.0708760  53.2523690  24.8565460  72.4658420  55.1076820  12.5839370
  73.3907730  54.9758000  12.3757660  72.4434210  55.1869640  13.5375820
  72.5396910  55.8787480  15.2096080  71.7448410  55.8132600  15.7388990
  72.7440190  56.8138120  15.1981430  69.4815330  69.9179030  19.2034470
  70.0774400  69.5963600  18.5268890  69.7393480  69.4450850  19.9947740
  55.7813530  53.1777340  25.1871910  55.4328350  53.6341160  25.9530090
  55.4501230  52.2834470  25.2694340  57.3877900  66.3496940  29.3525100
  57.3447530  65.9789850  30.2339560  57.5188910  67.2874510  29.4926920
  61.0883930  67.9056530  24.9534820  60.8475290  68.1731090  24.0665340
  62.0286570  68.0762260  25.0085680  63.2938350  54.3689220  28.7091330
  63.2327240  54.9611050  29.4586740  64.2338730  54.2615180  28.5641590
  65.9312910  54.0259280  28.3483620  66.5453320  54.3438570  27.6864700
  66.4762470  53.5407870  28.9679480  72.3488090  69.9250910  25.7545460
  71.8546370  70.3219780  25.0372590  71.7401380  69.3000120  26.1482740
  56.4534170  52.7053540  28.4622680  57.0017160  52.5241590  27.6988790
  56.5189480  51.9147650  28.9978990  57.2265930  69.2959190  26.4722880
  56.6326250  69.1643890  27.2112920  57.2189770  68.4597330  26.0064980
  66.6720950  52.5891420  24.6752910  65.7980790  52.9226530  24.4725840
  66.5631700  52.1164600  25.5004780  67.5792930  54.7962290  26.0594630
  67.2506290  53.9814050  25.6796360  68.5275230  54.7532100  25.9360320
  70.0327540  70.5674330  23.0332200  69.5730510  71.3190140  22.6590220
  69.4040000  69.8480800  22.9747000  56.8578160  66.6617570  25.4230920
  56.1312220  66.0422860  25.3556870  56.9187310  67.0558180  24.5529000
  60.4623260  68.8762570  22.2080330  60.9788280  68.2649930  21.6828590
  61.1120640  69.3791350  22.6991340  63.2018760  69.7671060  23.0349310
  63.4896570  69.5125360  22.1582320  63.7141980  69.2148420  23.6254880
  64.4195770  53.5061260  23.6145820  63.6367560  53.9806760  23.8942580
  64.1258700  52.6016090  23.5059000  68.9716840  54.2084360  21.6594910
  69.4124930  54.1529460  20.8116510  68.7024430  55.1242370  21.7305090
  70.8355410  53.8399600  19.6703730  70.7743810  52.8960820  19.5234750
  71.6147440  53.9479690  20.2157190  55.1408160  69.9791960  18.6327680
  54.9730200  69.3462640  19.3309570  54.2742670  70.1851360  18.2821870
  55.7636180  53.8108740  16.1359540  56.5215540  53.9237620  15.5623570
  55.3013350  54.6477940  16.0902970  62.3049990  55.9248010  19.1261850
  61.4924500  55.5504900  18.7857730  62.8091630  55.1693090  19.4283040
  66.8074970  52.5890460  20.3644920  67.4104340  53.1610670  20.8393440
  66.0667960  53.1529900  20.1418820  69.9509570  52.9912020  15.6385200
  70.1460200  53.8895470  15.9052630  69.1639440  52.7599100  16.1318150
  56.7470860  68.6725190  16.0777820  56.2218480  69.0533220  15.3739780
  56.6715440  69.2975960  16.7987530  58.1361330  54.3372790  14.6761510
  58.6654090  53.5502590  14.5469460  58.7689650  55.0163980  14.9097040
  60.3299170  54.0747930  17.7306900  59.7001910  53.3735240  17.8977030
  59.7904310  54.8352060  17.5140060  63.2691120  70.6887160  30.4017510
  64.1958430  70.4531430  30.4453470  63.2541550  71.5159160  29.9203540
  71.5036180  70.2312730  17.3991760  71.6788370  69.5450470  16.7552680
  70.8057750  70.7559780  17.0068430  60.4554730  53.3531910  30.1659390
  60.1739000  53.8565510  29.4020210  60.8374430  52.5553660  29.8001520
  59.3463830  70.6207570  14.9527070  60.0782650  70.3366850  14.4050960
  59.6057500  70.3820850  15.8426450  58.5078620  66.7372300  14.9573400
  57.8787500  67.2057400  15.5059230  58.6226450  65.8921520  15.3919590
  67.0570190  52.7685490  30.7439860  66.9435640  53.0880100  31.6391380
  67.8739930  53.1698000  30.4477140  69.8368680  69.9157020  30.2258550
  70.6294000  69.4206250  30.0184510  70.1301830  70.5947160  30.8334160
  64.0946380  62.5656980   2.9883870  63.3188480  62.0857420   3.2782440
  64.7459310  61.8862630   2.8140030  58.1112210  62.8776790   3.8659630
  57.2797090  62.6225500   4.2656140  58.7193190  62.9487560   4.6017550
  68.1153810  66.9717170   1.7683000  67.6535340  66.2004410   2.0970170
  68.9279360  66.9983240   2.2735450  58.0913470  66.9116880   4.0617650
  58.3941510  66.0214620   3.8827870  58.8357060  67.4687100   3.8339900
  54.4837170  60.4384330   3.5341720  55.0553280  59.6706530   3.5345360
  54.4838710  60.7373090   2.6248330  63.5355370  65.2414170   2.9954030
  63.4663650  64.3004110   2.8343160  64.2975230  65.3315580   3.5676600
  55.7262040  55.8468690   5.3210650  55.5464880  54.9494440   5.6013410
  55.3242120  56.3940560   5.9957600  64.5660540  58.0484550   3.2222960
  64.9425360  57.1756430   3.1096630  64.4680050  58.3843250   2.3313400
  56.3448710  58.3429190   3.9292990  57.0258820  58.6067560   4.5480390
  56.0296760  57.5030060   4.2631000  60.5373280  59.3896550   3.0165580
  61.0451500  59.8877520   3.6570600  61.0686520  58.6131750   2.8404940
  72.6384210  57.5601740   6.7194930  71.9336380  57.9483450   6.2010040
  72.9042130  58.2552030   7.3215860  58.8209380  54.0295110   7.2829000
  58.8227820  54.5467500   6.4774900  57.9913690  53.5525290   7.2598930
  60.0712230  63.6690290   5.4602500  59.7381610  64.2959210   6.1023570
  60.2478910  64.1952170   4.6804170  68.5846140  57.4835370   2.9278840
  67.8801710  57.7720260   3.5081950  68.9458300  58.2935480   2.5678400
  58.5024710  55.7405070   5.2899450  58.8441520  56.5847120   4.9953320
  57.5640520  55.8888810   5.4064790  59.2831330  65.6371090   7.2751680
  59.9005330  66.3122170   6.9936130  58.4224450  66.0459070   7.1839180
  70.2008920  67.1010500   5.1906320  69.5172440  67.7709610   5.1822990
  70.7403210  67.2991150   4.4251180  71.6533060  56.9290160   3.3188050
  70.7057970  56.9629140   3.4503480  71.9783050  57.7429110   3.7037410
  67.7367660  68.9454630   3.9051500  67.7494820  68.5416920   3.0373760
  67.1842880  69.7201920   3.8012930  67.1353100  63.8484470   5.2334110
  67.5521890  63.6344580   4.3987570  67.8592920  64.1057260   5.8042730
  71.0815200  62.2471690   5.3250350  70.2533830  62.3164780   4.8500480
  71.6765680  62.8326000   4.8566180  68.0457210  59.0341010   6.2705220
  67.6328390  59.8594720   6.5245210  67.3133160  58.4486050   6.0781580
  60.6471700  65.5068470   3.2963100  60.3499990  64.9013940   2.6170880
  61.5971520  65.5445780   3.1852460  58.8918620  58.5944120   4.9122930
  59.4433210  58.7039460   4.1376180  59.4062130  58.9681720   5.6278160
  68.7357310  69.0800340   6.9586200  68.2587870  69.8872530   6.7658810
  68.0519100  68.4278670   7.1112410  59.7390130  65.2450160   9.9470900
  58.8418660  65.4690130  10.1944300  59.7643000  65.3685100   8.9982300
  58.5661350  62.1163480   8.5228270  58.4269120  62.9886280   8.8915670
  57.6842710  61.7736290   8.3776210  60.3641700  68.0585180  10.7313420
  60.3357130  68.4628130   9.8641850  60.2006670  67.1295540  10.5685020
  72.3156520  68.8412280  12.0277590  72.7916240  69.3195170  12.7066670
  72.9363680  68.7729770  11.3023090  54.5180000  63.8861030   4.4399180
  54.5960420  64.0209800   3.4954900  55.1321680  63.1776920   4.6327300
  71.7189770  66.0325130   9.1877600  71.8452830  65.7937010   8.2694780
  71.7611150  65.2009670   9.6599680  65.5806510  69.7353130   7.7572410
  66.0951180  69.6461140   8.5594840  64.7375590  70.0812830   8.0500320
  71.5713780  58.0857590  10.1527340  70.9558050  58.5937260   9.6242800
  71.2510200  57.1855920  10.0953280  54.5739520  64.9275200   6.9793640
  54.7370560  64.4580560   6.1613010  55.0391970  64.4198760   7.6442480
  59.3458290  54.0580960   2.0154210  58.9026440  54.8390500   1.6838730
  59.9043280  54.3810850   2.7225150  63.6328100  56.9249480   7.6189530
  63.1707470  57.1332500   8.4309470  63.2306210  56.1108830   7.3160200
  68.6332610  58.1458430   8.7486190  67.7826200  57.8464180   9.0695260
  68.4734400  58.3900440   7.8370010  65.7282320  59.6460180  10.8484980
  66.0535730  58.8123930  10.5087210  66.5162650  60.1688700  10.9963310
  61.3834190  54.6028290   3.8743810  61.6806520  55.5091120   3.7935830
  61.9319750  54.1147070   3.2603380  61.5771720  60.0800110  10.4095730
  61.4815320  59.1394840  10.2596130  62.4203700  60.3015180  10.0143800
  56.7082260  56.4913780   8.5629510  56.3145650  57.3388990   8.7702290
  56.0200660  55.8540150   8.7538150  63.2827310  56.5748750  11.6326250
  62.5925630  56.3820950  12.2672340  64.0259610  56.8583390  12.1650550
  54.0099310  54.4142240   2.5959590  53.7212360  54.9845100   3.3084570
  54.7545070  53.9346690   2.9590820  65.5590280  60.4147190   4.4680170
  64.8271400  60.9234000   4.8170270  65.1614620  59.5977170   4.1668950
  61.9967670  57.0901390   2.8732660  62.0003730  56.6491340   2.0237200
  62.8918790  57.4118720   2.9804480  66.0216190  55.8680870   3.8803110
  66.0388930  56.3189520   4.7244960  65.7731770  54.9686510   4.0936550
  69.4486940  53.2813050   9.7189490  69.7732710  52.5502710  10.2447470
  69.4843450  52.9626690   8.8170480  56.1478500  64.3026630   9.1389450
  55.7633290  63.6620300   9.7372410  56.4590690  65.0062750   9.7084180
  62.2975640  61.1503170   4.6198070  62.6645770  60.6761740   5.3659410
  62.1080700  62.0244740   4.9606410  60.0875010  60.1911810   6.9382280
  59.7832080  61.0703790   7.1632640  61.0421470  60.2511600   6.9739720
  69.3744780  63.3938160   3.3275520  70.0943900  63.8893450   2.9371630
  69.1726600  62.7156050   2.6829390  64.7563580  63.4647220   9.2144520
  64.6900890  62.5442890   8.9602110  64.1268720  63.5622660   9.9289160
  56.1438740  61.0314550   8.0853640  55.7853680  61.6968400   8.6726980
  55.8493300  60.1998100   8.4566260  59.3451860  61.4898790  10.9693190
  59.0452000  61.6355970  10.0721010  60.1163100  60.9304080  10.8766580
  64.6880310  66.2867790   8.9648320  64.7024850  65.3548750   8.7467230
  63.9805410  66.3727550   9.6038090  70.8991520  62.9275130   8.3116900
  70.1739710  63.5203910   8.1146290  71.4266980  62.9198670   7.5130270
  64.1214210  67.9285360   6.0588820  64.7656430  68.1344740   6.7362240
  64.4843650  67.1673760   5.6059670  65.3946290  65.9317710   4.7766270
  66.0368520  65.2310870   4.8898440  65.9195640  66.7116150   4.5963160
  67.1683910  66.7312610   7.9802330  67.5040150  67.3179300   8.6580250
  66.2484250  66.6005320   8.2100120  54.7187310  54.5207790   8.7625740
  54.0045830  54.7204710   9.3678350  55.1382350  53.7447360   9.1340540
  55.0059900  68.5088050   9.7492270  55.1151020  67.5682790   9.6087660
  54.3540460  68.7742800   9.1006000  62.9972490  66.7803940  11.1490390
  62.6769360  66.0613180  11.6936080  62.3230850  67.4559010  11.2226450
  66.2126090  57.0130100   6.5127190  66.5806910  56.1925310   6.8406760
  65.3524290  57.0731990   6.9282840  63.1728080  59.6669690   6.7365160
  63.6713330  60.1415510   7.4017010  63.3151030  58.7433210   6.9435190
  70.3794940  55.8837650   7.5793550  69.8768540  56.6243050   7.9187360
  71.1951600  56.2721650   7.2630340  70.6742530  68.2979680   2.7009170
  70.7989950  69.1210850   3.1732980  71.5408090  68.0870410   2.3533320
  58.1460060  70.3910890   2.3726300  58.8822540  69.8426350   2.6434870
  58.5300980  71.2566900   2.2332290  57.1518340  69.5756960  11.5611880
  57.9531070  69.8969010  11.9747280  56.6370160  69.2152540  12.2831790
  65.9882970  65.6836830  11.5087290  65.3821130  65.7068430  10.7683040
  65.6837080  64.9519870  12.0454540  67.4183340  69.4117120  10.1196700
  68.3705090  69.3275140  10.0696940  67.2711560  70.0758830  10.7930490
  54.8716150  62.0630420  10.5047930  55.3755170  61.4837700  11.0764160
  54.1323570  62.3470650  11.0424300  61.9254090  63.4701410  10.0383450
  61.1599760  64.0386410   9.9538120  62.1070050  63.1777620   9.1451680
  69.0677440  65.2006740  10.5958470  69.8086910  65.5382500  10.0925930
  68.3050120  65.3698800  10.0428240  56.9039230  60.2060010  11.3998000
  56.9444570  59.9073880  12.3083230  57.7584730  60.6067620  11.2405520
  58.8445040  58.7852110   9.3672490  58.3141500  58.2943060   8.7395830
  59.5133110  59.2136310   8.8330420  67.7423100  63.2521570   9.1313680
  68.1564120  63.4066650   9.9804100  66.8074100  63.3776790   9.2939460
  68.2145270  60.5917730  11.1352830  68.7966040  59.8370050  11.0473310
  68.3907040  61.1225170  10.3584310  59.3317340  55.7514480   9.4469780
  59.2374210  55.1335230   8.7220650  58.7514730  56.4780770   9.2199690
  62.0978780  54.3087720   6.4797170  61.6496080  54.3311980   5.6342720
  61.4643980  53.9106740   7.0767470  62.5038330  63.2042050   7.1009610
  62.9226440  64.0474780   6.9285850  61.5846960  63.3414090   6.8716390
  64.8402230  60.9358230   8.4847450  64.9598440  60.3399370   9.2242290
  65.6996230  60.9727920   8.0648750  67.1790130  61.4895420   7.0609960
  66.6525350  62.0138040   6.4575100  67.5221470  62.1222810   7.6919690
  60.3545750  69.5095060   8.2167340  59.8166840  70.2341120   7.8976040
  60.6079710  69.0325400   7.4264680  61.6071000  57.4779580   9.7423270
  62.1970690  57.1695430  10.4301090  60.7891240  57.0059330   9.8983170
  66.4264430  57.0945390   9.9756290  65.7379950  56.4326930   9.9106280
  67.1470450  56.6483660  10.4204750  63.2107960  70.7446270   8.4753990
  63.1366660  71.6481410   8.7826360  62.3086800  70.4258170   8.4476060
  55.1025460  68.9391450   4.5169240  54.6656450  69.1192250   5.3493390
  55.6703140  69.6966070   4.3750960  70.7387640  68.4408450   8.8046550
  70.1389630  68.5001010   8.0610470  70.8681540  67.5013430   8.9343400
  69.4239280  65.1660430   6.9022710  68.6099120  65.5957590   7.1648500
  69.8313480  65.7778840   6.2891760  55.9725820  61.8364250   5.4161460
  56.3398860  61.7491650   6.2957480  55.4036640  61.0730800   5.3168320
  70.7729680  60.3048630   8.4291930  70.5415770  60.0761380   7.5289880
  71.0334230  61.2248180   8.3836820  55.5241820  58.7473340   9.3219880
  54.6297870  58.7140100   9.6613590  56.0639370  58.9460130  10.0871130
  69.2117750  55.5305060  11.2071630  70.0887930  55.5388460  11.5905630
  69.2238590  54.7935900  10.5963980  70.8370740  59.4674470   5.6179200
  69.8873450  59.4338010   5.7324190  71.0183750  60.3774580   5.3828970
  56.0281530  53.0221670   3.6703100  56.6757720  52.4719050   3.2298260
  56.4483370  53.2764820   4.4918910  69.9233870  53.2163030   7.0272740
  70.5606090  53.8297170   7.3931930  70.0708760  53.2523690   6.0821970
  55.7813530  53.1777340   6.4128420  55.4328350  53.6341160   7.1786600
  55.4501230  52.2834470   6.4950850  57.3877900  66.3496940  10.5781610
  57.3447530  65.9789850  11.4596070  57.5188910  67.2874510  10.7183430
  61.0883930  67.9056530   6.1791330  60.8475290  68.1731090   5.2921850
  62.0286570  68.0762260   6.2342190  63.2938350  54.3689220   9.9347840
  63.2327240  54.9611050  10.6843250  64.2338730  54.2615180   9.7898100
  65.9312910  54.0259280   9.5740130  66.5453320  54.3438570   8.9121210
  66.4762470  53.5407870  10.1935990  72.3488090  69.9250910   6.9801970
  71.8546370  70.3219780   6.2629100  71.7401380  69.3000120   7.3739250
  56.4534170  52.7053540   9.6879190  57.0017160  52.5241590   8.9245300
  56.5189480  51.9147650  10.2235500  57.2265930  69.2959190   7.6979390
  56.6326250  69.1643890   8.4369430  57.2189770  68.4597330   7.2321490
  66.6720950  52.5891420   5.9009420  65.7980790  52.9226530   5.6982350
  66.5631700  52.1164600   6.7261290  67.5792930  54.7962290   7.2851140
  67.2506290  53.9814050   6.9052870  68.5275230  54.7532100   7.1616830
  70.0327540  70.5674330   4.2588710  69.5730510  71.3190140   3.8846730
  69.4040000  69.8480800   4.2003510  56.8578160  66.6617570   6.6487430
  56.1312220  66.0422860   6.5813380  56.9187310  67.0558180   5.7785510
  60.4623260  68.8762570   3.4336840  60.9788280  68.2649930   2.9085100
  61.1120640  69.3791350   3.9247850  63.2018760  69.7671060   4.2605820
  63.4896570  69.5125360   3.3838830  63.7141980  69.2148420   4.8511390
  64.4195770  53.5061260   4.8402330  63.6367560  53.9806760   5.1199090
  64.1258700  52.6016090   4.7315510  68.9716840  54.2084360   2.8851420
  69.4124930  54.1529460   2.0373020  68.7024430  55.1242370   2.9561600
  63.2691120  70.6887160  11.6274020  64.1958430  70.4531430  11.6709980
  63.2541550  71.5159160  11.1460050  60.4554730  53.3531910  11.3915900
  60.1739000  53.8565510  10.6276720  60.8374430  52.5553660  11.0258030
  67.0570190  52.7685490  11.9696370  66.9435640  53.0880100  12.8647890
  67.8739930  53.1698000  11.6733650  69.8368680  69.9157020  11.4515060
  70.6294000  69.4206250  11.2441020  70.1301830  70.5947160  12.0590670
  65.9628340  42.0134470  76.2048560  65.8822390  41.0989080  75.9340270
  65.5492760  42.5101540  75.4988270  64.0946380  43.7913490  78.0857830
  63.3188480  43.3113930  78.3756400  64.7459310  43.1119140  77.9113990
  68.1153810  48.1973680  76.8656960  67.6535340  47.4260920  77.1944130
  68.9279360  48.2239750  77.3709410  56.5204160  39.0635190  72.7475980
  55.6320860  39.4051160  72.6455860  56.8045350  38.8635510  71.8556810
  54.4837170  41.6640840  78.6315680  55.0553280  40.8963040  78.6319320
  54.4838710  41.9629600  77.7222290  64.3417120  50.4831690  76.4860950
  63.7228560  50.9389190  75.9155390  65.1968900  50.6383150  76.0850650
  63.5355370  46.4670680  78.0927990  63.4663650  45.5260620  77.9317120
  64.2975230  46.5572090  78.6650560  64.5660540  39.2741060  78.3196920
  64.9425360  38.4012940  78.2070590  64.4680050  39.6099760  77.4287360
  58.6965550  37.6466690  73.7814360  58.8032300  38.5470420  74.0883120
  57.7857910  37.5984660  73.4909010  68.3484660  36.7691500  75.2525260
  69.1694280  36.2788070  75.2950740  68.3818740  37.3589160  76.0057100
  60.5373280  40.6153060  78.1139540  61.0451500  41.1134030  78.7544560
  61.0686520  39.8388260  77.9378900  65.2080470  45.3670930  73.8792860
  64.5897740  45.8320380  73.3155580  65.7203720  46.0598410  74.2962370
  68.5846140  38.7091880  78.0252800  67.8801710  38.9976770  78.6055910
  68.9458300  39.5191990  77.6652360  54.5763670  46.0527460  71.2532490
  54.1991650  46.5414560  70.5217390  54.8336740  46.7252740  71.8839020
  71.6533060  38.1546670  78.4162010  70.7057970  38.1885650  78.5477440
  71.9783050  38.9685620  78.8011370  62.1852600  34.4543850  76.7118000
  62.4927580  33.8990740  75.9953500  61.2553300  34.5888310  76.5290990
  69.0313080  46.8927360  74.0915630  68.9209410  45.9501690  74.2165050
  69.0281330  47.2543000  74.9778390  64.5733360  42.5192680  73.4478120
  63.6462640  42.4530060  73.6766590  64.7258180  43.4572810  73.3333360
  64.5602440  38.7909680  70.4445280  63.6206110  38.9523640  70.5297740
  64.8785700  39.5095360  69.8981270  68.6030650  44.0812980  73.9513370
  67.9843070  43.7432530  73.3039670  68.5855100  43.4372740  74.6592560
  60.1790000  43.0457420  76.2297850  59.7747000  42.3334670  75.7343750
  60.2653120  42.7010660  77.1185890  60.6471700  46.7324980  78.3937060
  60.3499990  46.1270450  77.7144840  61.5971520  46.7702290  78.2826420
  66.7795350  43.3199790  70.9586120  67.2188630  42.4822220  70.8123940
  67.4923770  43.9529190  71.0450260  64.8890730  48.2595860  74.9267360
  65.3286640  49.0020190  74.5122750  64.8277620  48.5022430  75.8506320
  70.3612490  34.5742600  69.2727160  70.0485150  34.6669430  70.1726230
  71.1224960  35.1523630  69.2224590  56.8794630  41.9402400  73.7304500
  56.7592230  42.6664490  73.1185770  56.5695520  41.1705310  73.2532410
  55.7627630  46.8117730  75.9479320  55.3555710  46.9532320  75.0932920
  56.6540640  46.5277890  75.7450530  67.5560910  51.2464980  72.2830370
  67.3962050  50.9567920  73.1812200  67.3907620  50.4705110  71.7475600
  60.0349290  51.0263510  74.0601990  59.8591770  50.1099050  73.8469790
  59.1805030  51.3850800  74.2999790  67.2587040  48.7552540  70.8428370
  66.5652200  48.7529830  70.1830650  68.0009900  48.3311860  70.4122540
  66.8236970  50.3815250  74.9176860  67.2793920  49.6004630  75.2315480
  67.1629490  51.0922070  75.4618040  59.3458290  35.2837470  77.1128170
  58.9026440  36.0647010  76.7812690  59.9043280  35.6067360  77.8199110
  62.4617110  34.9048170  71.9934000  61.8371290  34.9008040  72.7187310
  62.3747230  34.0379130  71.5969970  59.1372510  40.4071040  74.8409420
  58.9113430  40.1908210  75.7456040  58.3565040  40.8399500  74.4955390
  66.3670270  40.4134410  73.4400070  65.7679160  41.1370210  73.2563690
  66.9149880  40.3511190  72.6576520  64.9735140  39.0497950  75.4703350
  65.3664710  39.3670150  74.6572040  65.3351990  38.1709830  75.5847870
  54.0099310  35.6398750  77.6933550  53.7212360  36.2101610  78.4058530
  54.7545070  35.1603200  78.0564780  54.1969540  39.5818870  68.9036270
  54.1144210  40.5249630  69.0451260  53.8452600  39.4393780  68.0248620
  61.9967670  38.3157900  77.9706620  62.0003730  37.8747850  77.1211160
  62.8918790  38.6375230  78.0778440  57.8470050  38.1984390  76.9300830
  57.5070100  38.6759620  77.6867880  57.0847370  37.7449510  76.5701930
  62.0587820  39.3169980  70.9613380  62.1800640  39.2756460  71.9099200
  61.6736330  40.1794130  70.8060110  61.0709320  41.6271120  70.3596680
  60.5026220  41.1789370  69.7332590  61.7798320  41.9863900  69.8261830
  55.1616130  37.1203370  75.8465500  54.8763050  36.7559040  76.6844120
  55.0994990  36.3883830  75.2328640  58.6156800  45.6229310  72.6323090
  57.8419060  45.0826930  72.4721810  59.3451430  45.1035920  72.2940850
  69.3744780  44.6194670  78.4249480  70.0943900  45.1149960  78.0345590
  69.1726600  43.9412560  77.7803350  64.8354720  36.0132630  72.5678870
  64.0219330  35.5145800  72.4924180  64.6416670  36.8530880  72.1515220
  67.5503110  40.3852280  70.8641030  68.4382730  40.6969510  70.6892370
  67.5208200  39.5124530  70.4721610  58.6594200  45.2909690  76.2701900
  59.1772870  44.4877950  76.2158790  58.2078220  45.2288830  77.1118730
  63.5463700  46.5575970  71.5429200  63.8879400  47.3018200  71.0472520
  62.7176410  46.8707090  71.9054030  69.8217380  41.6964120  70.3320890
  69.7381100  42.1278340  69.4817330  70.5411570  42.1562470  70.7647710
  70.8504630  48.5506380  73.0603020  70.2080790  47.8962000  73.3346740
  70.4635290  48.9561470  72.2843690  66.4291110  45.8791810  76.9074710
  66.7814930  45.2819940  76.2476080  65.5453440  45.5536040  77.0782960
  62.5154390  46.6389500  74.3145120  63.2025520  47.1858710  74.6952710
  61.7286810  47.1830230  74.3494730  54.6546790  42.2562320  69.8062200
  55.5241640  42.5387120  70.0898120  54.1637110  43.0698190  69.6911010
  61.8181600  43.6435530  73.9270480  62.2744380  44.4540780  74.1530670
  61.4669810  43.3258670  74.7588970  57.7193380  33.9873180  74.3993000
  57.5908010  33.9791080  75.3477920  56.8955400  34.3256270  74.0484010
  69.2402010  47.4422840  69.5979370  69.0139590  46.7253280  70.1904010
  68.8498210  47.1935280  68.7601120  55.0218040  51.4689700  70.3723830
  55.3815680  52.0679040  69.7181100  54.8810380  52.0149590  71.1458860
  68.8218260  45.3594780  71.2593530  68.5339960  45.8207470  72.0471410
  69.6170430  44.8992550  71.5277750  61.0386660  48.8520900  71.1897500
  61.0296760  49.5850590  70.5742010  60.1185020  48.6052480  71.2824460
  56.6393300  44.0735790  71.9344260  56.0321250  44.8134690  71.9439560
  57.1142650  44.1635150  71.1082460  69.5788120  37.1943550  72.4188710
  68.9501280  37.2989220  71.7046940  69.0840040  37.4140330  73.2082590
  64.0246260  48.9149140  69.8522690  64.1258240  48.7113130  68.9224670
  63.1248000  48.6607420  70.0570470  61.5472150  39.4729500  73.8346590
  60.8388300  39.9415840  74.2760200  61.8316630  38.8151510  74.4691780
  65.5787580  36.1980160  75.2742380  65.4555360  36.2166290  74.3251890
  66.5272140  36.2459100  75.3940780  62.6664370  51.4335460  74.5470360
  62.9205870  51.3956850  73.6249730  61.7176850  51.3068790  74.5398610
  59.7507170  37.7814580  71.2097300  60.5997700  38.2184730  71.1437490
  59.3838440  38.0934840  72.0369360  68.6716950  42.3527340  76.1228870
  67.7307090  42.3677570  76.2976560  68.9861020  41.5663300  76.5689170
  58.6498590  44.0346940  69.6832830  59.4161860  43.9228300  70.2458260
  58.7273280  43.3384910  69.0309600  57.3445350  41.4672010  70.3665720
  57.4248940  40.5199520  70.4783120  58.2365100  41.7978890  70.4726380
  70.6742530  49.5236190  77.7983130  70.7989950  50.3467360  78.2706940
  71.5408090  49.3126920  77.4507280  58.1460060  51.6167400  77.4700260
  58.8822540  51.0682860  77.7408830  58.5300980  52.4823410  77.3306250
  55.0305540  47.6840970  73.3441770  54.1045320  47.9262110  73.3347180
  55.4961970  48.5115230  73.2226520  61.2562370  50.7897710  69.2925830
  62.0490980  51.0786540  68.8407620  60.7366720  50.3589880  68.6138310
  70.3092540  50.0167840  70.7162570  70.0234050  49.6032980  69.9016750
  70.1112090  50.9455550  70.5963090  61.7739770  46.0101120  69.1568180
  61.6690410  45.3953470  69.8829560  61.6063990  45.4867010  68.3731190
  65.0142500  45.0721150  69.7610170  64.4652600  45.5190450  70.4052910
  65.6361760  44.5670400  70.2847840  60.6817620  44.0312070  71.6575470
  61.1034040  43.8651940  72.5006860  60.8068460  43.2212300  71.1630610
  63.1945260  43.0549680  68.9052570  63.7150920  42.3398700  68.5393720
  63.8413660  43.6935550  69.2053080  59.5776520  40.1045300  68.6033630
  59.3765580  39.2412660  68.9646970  59.4068570  40.0178660  67.6655230
  67.0564830  34.9153530  71.1320510  67.3367120  34.0721430  71.4879930
  66.2830560  35.1476640  71.6459260  58.3759320  37.2045920  68.5911510
  58.6785220  37.2113350  67.6830660  59.1153910  36.8543780  69.0879170
  61.5944250  36.1480540  69.5767710  61.2466250  35.4704530  68.9970160
  61.7957020  35.6870050  70.3911100  63.7593290  51.1361290  71.1954310
  64.6544080  51.4746260  71.2173070  63.7910920  50.4140700  70.5678590
  57.3989450  46.5088340  69.4241310  57.8364320  47.0518010  70.0798890
  57.8837180  45.6835290  69.4337650  54.6135250  49.2977370  76.8761570
  54.9438260  48.4298430  76.6440210  55.0426250  49.5035890  77.7066530
  59.2097170  47.6286380  74.5363540  58.9092710  47.5051350  75.4367450
  59.1034660  46.7694970  74.1279270  71.9789090  47.4082780  69.2390220
  71.1482050  47.4759430  69.7097450  72.1560920  48.2986900  68.9357080
  71.4345550  44.1530260  71.7424420  72.1964460  44.7226910  71.8484110
  71.4499920  43.5857460  72.5132730  54.9349890  42.6768190  75.9732080
  54.2798730  42.4079830  75.3291780  55.7727840  42.5672670  75.5234060
  72.4405520  45.0080360  76.5866350  72.8114350  44.2247680  76.1802320
  73.0807450  45.6969460  76.4083650  71.4864720  44.4464630  68.8996940
  71.7613560  45.3543510  68.7716160  71.2975460  44.3827160  69.8358930
  67.8840330  37.4709480  70.1950570  68.3025210  37.2840460  69.3547230
  67.5776390  36.6188530  70.5053500  71.3830060  42.3833620  73.8926370
  71.0073660  41.6161550  73.4607660  70.6533180  42.7656320  74.3801300
  54.1487970  39.8867120  71.9157410  53.2452050  40.1497320  71.7409070
  54.6328590  40.1578290  71.1357370  70.6581020  40.6091110  77.1933610
  71.1818500  40.1153760  76.5623780  71.2440440  40.7441470  77.9381180
  56.6915180  38.9432660  69.8251790  57.4006880  38.5215880  69.3399070
  55.9755120  39.0107890  69.1935140  56.3389340  34.9971990  68.8654440
  57.0617470  35.5380930  69.1835660  56.6113860  34.7235410  67.9895980
  70.1480990  39.8664460  73.1326020  70.6440110  39.6335330  73.9174900
  69.9497060  39.0276300  72.7163660  71.5768150  38.5025410  75.6663700
  71.4667430  38.3481450  76.6045970  72.3375740  37.9746350  75.4239110
  72.4658420  36.3333330  68.9069840  73.3907730  36.2014510  68.6988130
  72.4434210  36.4126150  69.8606290  72.5396910  37.1043990  71.5326550
  71.7448410  37.0389110  72.0619460  72.7440190  38.0394630  71.5211900
  69.4815330  51.1435540  75.5264940  70.0774400  50.8220110  74.8499360
  69.7393480  50.6707360  76.3178210  68.9716840  35.4340870  77.9825380
  69.4124930  35.3785970  77.1346980  68.7024430  36.3498880  78.0535560
  70.8355410  35.0656110  75.9934200  70.7743810  34.1217330  75.8465220
  71.6147440  35.1736200  76.5387660  55.1408160  51.2048470  74.9558150
  54.9730200  50.5719150  75.6540040  54.2742670  51.4107870  74.6052340
  55.7636180  35.0365250  72.4590010  56.5215540  35.1494130  71.8854040
  55.3013350  35.8734450  72.4133440  62.3049990  37.1504520  75.4492320
  61.4924500  36.7761410  75.1088200  62.8091630  36.3949600  75.7513510
  66.8074970  33.8146970  76.6875390  67.4104340  34.3867180  77.1623910
  66.0667960  34.3786410  76.4649290  69.9509570  34.2168530  71.9615670
  70.1460200  35.1151980  72.2283100  69.1639440  33.9855610  72.4548620
  56.7470860  49.8981700  72.4008290  56.2218480  50.2789730  71.6970250
  56.6715440  50.5232470  73.1218000  58.1361330  35.5629300  70.9991980
  58.6654090  34.7759100  70.8699930  58.7689650  36.2420490  71.2327510
  60.3299170  35.3004440  74.0537370  59.7001910  34.5991750  74.2207500
  59.7904310  36.0608570  73.8370530  71.5036180  51.4569240  73.7222230
  71.6788370  50.7706980  73.0783150  70.8057750  51.9816290  73.3298900
  59.3463830  51.8464080  71.2757540  60.0782650  51.5623360  70.7281430
  59.6057500  51.6077360  72.1656920  58.5078620  47.9628810  71.2803870
  57.8787500  48.4313910  71.8289700  58.6226450  47.1178030  71.7150060
  68.1153810  48.1973680  58.0913470  67.6535340  47.4260920  58.4200640
  68.9279360  48.2239750  58.5965920  58.0913470  48.1373390  60.3848120
  58.3941510  47.2471130  60.2058340  58.8357060  48.6943610  60.1570370
  64.3417120  50.4831690  57.7117460  63.7228560  50.9389190  57.1411900
  65.1968900  50.6383150  57.3107160  72.6384210  38.7858250  63.0425400
  71.9336380  39.1739960  62.5240510  72.9042130  39.4808540  63.6446330
  59.2831330  46.8627600  63.5982150  59.9005330  47.5378680  63.3166600
  58.4224450  47.2715580  63.5069650  70.2008920  48.3267010  61.5136790
  69.5172440  48.9966120  61.5053460  70.7403210  48.5247660  60.7481650
  71.6533060  38.1546670  59.6418520  70.7057970  38.1885650  59.7733950
  71.9783050  38.9685620  60.0267880  67.7367660  50.1711140  60.2281970
  67.7494820  49.7673430  59.3604230  67.1842880  50.9458430  60.1243400
  69.0313080  46.8927360  55.3172140  68.9209410  45.9501690  55.4421560
  69.0281330  47.2543000  56.2034900  67.1353100  45.0740980  61.5564580
  67.5521890  44.8601090  60.7218040  67.8592920  45.3313770  62.1273200
  71.0815200  43.4728200  61.6480820  70.2533830  43.5421290  61.1730950
  71.6765680  44.0582510  61.1796650  68.6030650  44.0812980  55.1769880
  67.9843070  43.7432530  54.5296180  68.5855100  43.4372740  55.8849070
  68.0457210  40.2597520  62.5935690  67.6328390  41.0851230  62.8475680
  67.3133160  39.6742560  62.4012050  68.7357310  50.3056850  63.2816670
  68.2587870  51.1129040  63.0889280  68.0519100  49.6535180  63.4342880
  59.7390130  46.4706670  66.2701370  58.8418660  46.6946640  66.5174770
  59.7643000  46.5941610  65.3212770  58.5661350  43.3419990  64.8458740
  58.4269120  44.2142790  65.2146140  57.6842710  42.9992800  64.7006680
  64.8890730  48.2595860  56.1523870  65.3286640  49.0020190  55.7379260
  64.8277620  48.5022430  57.0762830  60.3641700  49.2841690  67.0543890
  60.3357130  49.6884640  66.1872320  60.2006670  48.3552050  66.8915490
  72.3156520  50.0668790  68.3508060  72.7916240  50.5451680  69.0297140
  72.9363680  49.9986280  67.6253560  71.7189770  47.2581640  65.5108070
  71.8452830  47.0193520  64.5925250  71.7611150  46.4266180  65.9830150
  65.5806510  50.9609640  64.0802880  66.0951180  50.8717650  64.8825310
  64.7375590  51.3069340  64.3730790  67.5560910  51.2464980  53.5086880
  67.3962050  50.9567920  54.4068710  67.3907620  50.4705110  52.9732110
  67.2587040  48.7552540  52.0684880  66.5652200  48.7529830  51.4087160
  68.0009900  48.3311860  51.6379050  66.8236970  50.3815250  56.1433370
  67.2793920  49.6004630  56.4571990  67.1629490  51.0922070  56.6874550
  71.5713780  39.3114100  66.4757810  70.9558050  39.8193770  65.9473270
  71.2510200  38.4112430  66.4183750  54.5739520  46.1531710  63.3024110
  54.7370560  45.6837070  62.4843480  55.0391970  45.6455270  63.9672950
  68.6332610  39.3714940  65.0716660  67.7826200  39.0720690  65.3925730
  68.4734400  39.6156950  64.1600480  65.7282320  40.8716690  67.1715450
  66.0535730  40.0380440  66.8317680  66.5162650  41.3945210  67.3193780
  61.5771720  41.3056620  66.7326200  61.4815320  40.3651350  66.5826600
  62.4203700  41.5271690  66.3374270  56.7082260  37.7170290  64.8859980
  56.3145650  38.5645500  65.0932760  56.0200660  37.0796660  65.0768620
  63.2827310  37.8005260  67.9556720  62.5925630  37.6077460  68.5902810
  64.0259610  38.0839900  68.4881020  65.5590280  41.6403700  60.7910640
  64.8271400  42.1490510  61.1400740  65.1614620  40.8233680  60.4899420
  69.4486940  34.5069560  66.0419960  69.7732710  33.7759220  66.5677940
  69.4843450  34.1883200  65.1400950  56.1478500  45.5283140  65.4619920
  55.7633290  44.8876810  66.0602880  56.4590690  46.2319260  66.0314650
  69.3744780  44.6194670  59.6505990  70.0943900  45.1149960  59.2602100
  69.1726600  43.9412560  59.0059860  64.7563580  44.6903730  65.5374990
  64.6900890  43.7699400  65.2832580  64.1268720  44.7879170  66.2519630
  56.1438740  42.2571060  64.4084110  55.7853680  42.9224910  64.9957450
  55.8493300  41.4254610  64.7796730  59.3451860  42.7155300  67.2923660
  59.0452000  42.8612480  66.3951480  60.1163100  42.1560590  67.1997050
  64.6880310  47.5124300  65.2878790  64.7024850  46.5805260  65.0697700
  63.9805410  47.5984060  65.9268560  70.8991520  44.1531640  64.6347370
  70.1739710  44.7460420  64.4376760  71.4266980  44.1455180  63.8360740
  70.8504630  48.5506380  54.2859530  70.2080790  47.8962000  54.5603250
  70.4635290  48.9561470  53.5100200  66.4291110  45.8791810  58.1331220
  66.7814930  45.2819940  57.4732590  65.5453440  45.5536040  58.3039470
  64.1214210  49.1541870  62.3819290  64.7656430  49.3601250  63.0592710
  64.4843650  48.3930270  61.9290140  65.3946290  47.1574220  61.0996740
  66.0368520  46.4567380  61.2128910  65.9195640  47.9372660  60.9193630
  67.1683910  47.9569120  64.3032800  67.5040150  48.5435810  64.9810720
  66.2484250  47.8261830  64.5330590  54.7187310  35.7464300  65.0856210
  54.0045830  35.9461220  65.6908820  55.1382350  34.9703870  65.4571010
  55.0059900  49.7344560  66.0722740  55.1151020  48.7939300  65.9318130
  54.3540460  49.9999310  65.4236470  62.9972490  48.0060450  67.4720860
  62.6769360  47.2869690  68.0166550  62.3230850  48.6815520  67.5456920
  66.2126090  38.2386610  62.8357660  66.5806910  37.4181820  63.1637230
  65.3524290  38.2988500  63.2513310  70.3794940  37.1094160  63.9024020
  69.8768540  37.8499560  64.2417830  71.1951600  37.4978160  63.5860810
  68.6716950  42.3527340  57.3485380  67.7307090  42.3677570  57.5233070
  68.9861020  41.5663300  57.7945680  70.6742530  49.5236190  59.0239640
  70.7989950  50.3467360  59.4963450  71.5408090  49.3126920  58.6763790
  58.1460060  51.6167400  58.6956770  58.8822540  51.0682860  58.9665340
  58.5300980  52.4823410  58.5562760  57.1518340  50.8013470  67.8842350
  57.9531070  51.1225520  68.2977750  56.6370160  50.4409050  68.6062260
  65.9882970  46.9093340  67.8317760  65.3821130  46.9324940  67.0913510
  65.6837080  46.1776380  68.3685010  67.4183340  50.6373630  66.4427170
  68.3705090  50.5531650  66.3927410  67.2711560  51.3015340  67.1160960
  70.3092540  50.0167840  51.9419080  70.0234050  49.6032980  51.1273260
  70.1112090  50.9455550  51.8219600  54.8716150  43.2886930  66.8278400
  55.3755170  42.7094210  67.3994630  54.1323570  43.5727160  67.3654770
  61.9254090  44.6957920  66.3613920  61.1599760  45.2642920  66.2768590
  62.1070050  44.4034130  65.4682150  69.0677440  46.4263250  66.9188940
  69.8086910  46.7639010  66.4156400  68.3050120  46.5955310  66.3658710
  56.9039230  41.4316520  67.7228470  56.9444570  41.1330390  68.6313700
  57.7584730  41.8324130  67.5635990  67.7423100  44.4778080  65.4544150
  68.1564120  44.6323160  66.3034570  66.8074100  44.6033300  65.6169930
  68.2145270  41.8174240  67.4583300  68.7966040  41.0626560  67.3703780
  68.3907040  42.3481680  66.6814780  62.5038330  44.4298560  63.4240080
  62.9226440  45.2731290  63.2516320  61.5846960  44.5670600  63.1946860
  64.8402230  42.1614740  64.8077920  64.9598440  41.5655880  65.5472760
  65.6996230  42.1984430  64.3879220  60.3545750  50.7351570  64.5397810
  59.8166840  51.4597630  64.2206510  60.6079710  50.2581910  63.7495150
  66.4264430  38.3201900  66.2986760  65.7379950  37.6583440  66.2336750
  67.1470450  37.8740170  66.7435220  63.2107960  51.9702780  64.7984460
  63.1366660  52.8737920  65.1056830  62.3086800  51.6514680  64.7706530
  55.1025460  50.1647960  60.8399710  54.6656450  50.3448760  61.6723860
  55.6703140  50.9222580  60.6981430  70.7387640  49.6664960  65.1277020
  70.1389630  49.7257520  64.3840940  70.8681540  48.7269940  65.2573870
  72.4405520  45.0080360  57.8122860  72.8114350  44.2247680  57.4058830
  73.0807450  45.6969460  57.6340160  69.4239280  46.3916940  63.2253180
  68.6099120  46.8214100  63.4878970  69.8313480  47.0035350  62.6122230
  71.3830060  42.3833620  55.1182880  71.0073660  41.6161550  54.6864170
  70.6533180  42.7656320  55.6057810  70.7729680  41.5305140  64.7522400
  70.5415770  41.3017890  63.8520350  71.0334230  42.4504690  64.7067290
  55.5241820  39.9729850  65.6450350  54.6297870  39.9396610  65.9844060
  56.0639370  40.1716640  66.4101600  69.2117750  36.7561570  67.5302100
  70.0887930  36.7644970  67.9136100  69.2238590  36.0192410  66.9194450
  70.6581020  40.6091110  58.4190120  71.1818500  40.1153760  57.7880290
  71.2440440  40.7441470  59.1637690  70.8370740  40.6930980  61.9409670
  69.8873450  40.6594520  62.0554660  71.0183750  41.6031090  61.7059440
  71.5768150  38.5025410  56.8920210  71.4667430  38.3481450  57.8302480
  72.3375740  37.9746350  56.6495620  69.9233870  34.4419540  63.3503210
  70.5606090  35.0553680  63.7162400  70.0708760  34.4780200  62.4052440
  69.4815330  51.1435540  56.7521450  70.0774400  50.8220110  56.0755870
  69.7393480  50.6707360  57.5434720  57.3877900  47.5753450  66.9012080
  57.3447530  47.2046360  67.7826540  57.5188910  48.5131020  67.0413900
  61.0883930  49.1313040  62.5021800  60.8475290  49.3987600  61.6152320
  62.0286570  49.3018770  62.5572660  63.2938350  35.5945730  66.2578310
  63.2327240  36.1867560  67.0073720  64.2338730  35.4871690  66.1128570
  65.9312910  35.2515790  65.8970600  66.5453320  35.5695080  65.2351680
  66.4762470  34.7664380  66.5166460  72.3488090  51.1507420  63.3032440
  71.8546370  51.5476290  62.5859570  71.7401380  50.5256630  63.6969720
  56.4534170  33.9310050  66.0109660  57.0017160  33.7498100  65.2475770
  56.5189480  33.1404160  66.5465970  57.2265930  50.5215700  64.0209860
  56.6326250  50.3900400  64.7599900  57.2189770  49.6853840  63.5551960
  66.6720950  33.8147930  62.2239890  65.7980790  34.1483040  62.0212820
  66.5631700  33.3421110  63.0491760  67.5792930  36.0218800  63.6081610
  67.2506290  35.2070560  63.2283340  68.5275230  35.9788610  63.4847300
  70.0327540  51.7930840  60.5819180  69.5730510  52.5446650  60.2077200
  69.4040000  51.0737310  60.5233980  56.8578160  47.8874080  62.9717900
  56.1312220  47.2679370  62.9043850  56.9187310  48.2814690  62.1015980
  60.4623260  50.1019080  59.7567310  60.9788280  49.4906440  59.2315570
  61.1120640  50.6047860  60.2478320  63.2018760  50.9927570  60.5836290
  63.4896570  50.7381870  59.7069300  63.7141980  50.4404930  61.1741860
  68.9716840  35.4340870  59.2081890  69.4124930  35.3785970  58.3603490
  68.7024430  36.3498880  59.2792070  70.8355410  35.0656110  57.2190710
  70.7743810  34.1217330  57.0721730  71.6147440  35.1736200  57.7644170
  63.2691120  51.9143670  67.9504490  64.1958430  51.6787940  67.9940450
  63.2541550  52.7415670  67.4690520  71.5036180  51.4569240  54.9478740
  71.6788370  50.7706980  54.3039660  70.8057750  51.9816290  54.5555410
  60.4554730  34.5788420  67.7146370  60.1739000  35.0822020  66.9507190
  60.8374430  33.7810170  67.3488500  67.0570190  33.9942000  68.2926840
  66.9435640  34.3136610  69.1878360  67.8739930  34.3954510  67.9964120
  69.8368680  51.1413530  67.7745530  70.6294000  50.6462760  67.5671490
  70.1301830  51.8203670  68.3821140  65.9628340  42.0134470  38.6561580
  65.8822390  41.0989080  38.3853290  65.5492760  42.5101540  37.9501290
  64.0946380  43.7913490  40.5370850  63.3188480  43.3113930  40.8269420
  64.7459310  43.1119140  40.3627010  68.1153810  48.1973680  39.3169980
  67.6535340  47.4260920  39.6457150  68.9279360  48.2239750  39.8222430
  64.3417120  50.4831690  38.9373970  63.7228560  50.9389190  38.3668410
  65.1968900  50.6383150  38.5363670  63.5355370  46.4670680  40.5441010
  63.4663650  45.5260620  40.3830140  64.2975230  46.5572090  41.1163580
  68.3484660  36.7691500  37.7038280  69.1694280  36.2788070  37.7463760
  68.3818740  37.3589160  38.4570120  72.6384210  38.7858250  44.2681910
  71.9336380  39.1739960  43.7497020  72.9042130  39.4808540  44.8702840
  65.2080470  45.3670930  36.3305880  64.5897740  45.8320380  35.7668600
  65.7203720  46.0598410  36.7475390  68.5846140  38.7091880  40.4765820
  67.8801710  38.9976770  41.0568930  68.9458300  39.5191990  40.1165380
  70.2008920  48.3267010  42.7393300  69.5172440  48.9966120  42.7309970
  70.7403210  48.5247660  41.9738160  71.6533060  38.1546670  40.8675030
  70.7057970  38.1885650  40.9990460  71.9783050  38.9685620  41.2524390
  67.7367660  50.1711140  41.4538480  67.7494820  49.7673430  40.5860740
  67.1842880  50.9458430  41.3499910  69.0313080  46.8927360  36.5428650
  68.9209410  45.9501690  36.6678070  69.0281330  47.2543000  37.4291410
  67.1353100  45.0740980  42.7821090  67.5521890  44.8601090  41.9474550
  67.8592920  45.3313770  43.3529710  64.5733360  42.5192680  35.8991140
  63.6462640  42.4530060  36.1279610  64.7258180  43.4572810  35.7846380
  64.5602440  38.7909680  32.8958300  63.6206110  38.9523640  32.9810760
  64.8785700  39.5095360  32.3494290  71.0815200  43.4728200  42.8737330
  70.2533830  43.5421290  42.3987460  71.6765680  44.0582510  42.4053160
  68.6030650  44.0812980  36.4026390  67.9843070  43.7432530  35.7552690
  68.5855100  43.4372740  37.1105580  68.0457210  40.2597520  43.8192200
  67.6328390  41.0851230  44.0732190  67.3133160  39.6742560  43.6268560
  68.7357310  50.3056850  44.5073180  68.2587870  51.1129040  44.3145790
  68.0519100  49.6535180  44.6599390  66.7795350  43.3199790  33.4099140
  67.2188630  42.4822220  33.2636960  67.4923770  43.9529190  33.4963280
  64.8890730  48.2595860  37.3780380  65.3286640  49.0020190  36.9635770
  64.8277620  48.5022430  38.3019340  70.3612490  34.5742600  31.7240180
  70.0485150  34.6669430  32.6239250  71.1224960  35.1523630  31.6737610
  72.3156520  50.0668790  49.5764570  72.7916240  50.5451680  50.2553650
  72.9363680  49.9986280  48.8510070  65.5806510  50.9609640  45.3059390
  66.0951180  50.8717650  46.1081820  64.7375590  51.3069340  45.5987300
  67.5560910  51.2464980  34.7343390  67.3962050  50.9567920  35.6325220
  67.3907620  50.4705110  34.1988620  67.2587040  48.7552540  33.2941390
  66.5652200  48.7529830  32.6343670  68.0009900  48.3311860  32.8635560
  66.8236970  50.3815250  37.3689880  67.2793920  49.6004630  37.6828500
  67.1629490  51.0922070  37.9131060  66.3670270  40.4134410  35.8913090
  65.7679160  41.1370210  35.7076710  66.9149880  40.3511190  35.1089540
  65.5590280  41.6403700  42.0167150  64.8271400  42.1490510  42.3657250
  65.1614620  40.8233680  41.7155930  62.0587820  39.3169980  33.4126400
  62.1800640  39.2756460  34.3612220  61.6736330  40.1794130  33.2573130
  61.0709320  41.6271120  32.8109700  60.5026220  41.1789370  32.1845610
  61.7798320  41.9863900  32.2774850  69.3744780  44.6194670  40.8762500
  70.0943900  45.1149960  40.4858610  69.1726600  43.9412560  40.2316370
  64.8354720  36.0132630  35.0191890  64.0219330  35.5145800  34.9437200
  64.6416670  36.8530880  34.6028240  67.5503110  40.3852280  33.3154050
  68.4382730  40.6969510  33.1405390  67.5208200  39.5124530  32.9234630
  63.5463700  46.5575970  33.9942220  63.8879400  47.3018200  33.4985540
  62.7176410  46.8707090  34.3567050  69.8217380  41.6964120  32.7833910
  69.7381100  42.1278340  31.9330350  70.5411570  42.1562470  33.2160730
  70.8991520  44.1531640  45.8603880  70.1739710  44.7460420  45.6633270
  71.4266980  44.1455180  45.0617250  70.8504630  48.5506380  35.5116040
  70.2080790  47.8962000  35.7859760  70.4635290  48.9561470  34.7356710
  66.4291110  45.8791810  39.3587730  66.7814930  45.2819940  38.6989100
  65.5453440  45.5536040  39.5295980  62.5154390  46.6389500  36.7658140
  63.2025520  47.1858710  37.1465730  61.7286810  47.1830230  36.8007750
  61.8181600  43.6435530  36.3783500  62.2744380  44.4540780  36.6043690
  61.4669810  43.3258670  37.2101990  64.1214210  49.1541870  43.6075800
  64.7656430  49.3601250  44.2849220  64.4843650  48.3930270  43.1546650
  65.3946290  47.1574220  42.3253250  66.0368520  46.4567380  42.4385420
  65.9195640  47.9372660  42.1450140  69.2402010  47.4422840  32.0492390
  69.0139590  46.7253280  32.6417030  68.8498210  47.1935280  31.2114140
  68.8218260  45.3594780  33.7106550  68.5339960  45.8207470  34.4984430
  69.6170430  44.8992550  33.9790770  61.0386660  48.8520900  33.6410520
  61.0296760  49.5850590  33.0255030  60.1185020  48.6052480  33.7337480
  69.5788120  37.1943550  34.8701730  68.9501280  37.2989220  34.1559960
  69.0840040  37.4140330  35.6595610  64.0246260  48.9149140  32.3035710
  64.1258240  48.7113130  31.3737690  63.1248000  48.6607420  32.5083490
  65.5787580  36.1980160  37.7255400  65.4555360  36.2166290  36.7764910
  66.5272140  36.2459100  37.8453800  62.6664370  51.4335460  36.9983380
  62.9205870  51.3956850  36.0762750  61.7176850  51.3068790  36.9911630
  59.7507170  37.7814580  33.6610320  60.5997700  38.2184730  33.5950510
  59.3838440  38.0934840  34.4882380  70.3794940  37.1094160  45.1280530
  69.8768540  37.8499560  45.4674340  71.1951600  37.4978160  44.8117320
  68.6716950  42.3527340  38.5741890  67.7307090  42.3677570  38.7489580
  68.9861020  41.5663300  39.0202190  58.6498590  44.0346940  32.1345850
  59.4161860  43.9228300  32.6971280  58.7273280  43.3384910  31.4822620
  57.3445350  41.4672010  32.8178740  57.4248940  40.5199520  32.9296140
  58.2365100  41.7978890  32.9239400  70.6742530  49.5236190  40.2496150
  70.7989950  50.3467360  40.7219960  71.5408090  49.3126920  39.9020300
  61.2562370  50.7897710  31.7438850  62.0490980  51.0786540  31.2920640
  60.7366720  50.3589880  31.0651330  67.4183340  50.6373630  47.6683680
  68.3705090  50.5531650  47.6183920  67.2711560  51.3015340  48.3417470
  70.3092540  50.0167840  33.1675590  70.0234050  49.6032980  32.3529770
  70.1112090  50.9455550  33.0476110  61.7739770  46.0101120  31.6081200
  61.6690410  45.3953470  32.3342580  61.6063990  45.4867010  30.8244210
  65.0142500  45.0721150  32.2123190  64.4652600  45.5190450  32.8565930
  65.6361760  44.5670400  32.7360860  60.6817620  44.0312070  34.1088490
  61.1034040  43.8651940  34.9519880  60.8068460  43.2212300  33.6143630
  63.1945260  43.0549680  31.3565590  63.7150920  42.3398700  30.9906740
  63.8413660  43.6935550  31.6566100  67.0564830  34.9153530  33.5833530
  67.3367120  34.0721430  33.9392950  66.2830560  35.1476640  34.0972280
  58.3759320  37.2045920  31.0424530  58.6785220  37.2113350  30.1343680
  59.1153910  36.8543780  31.5392190  63.2107960  51.9702780  46.0240970
  63.1366660  52.8737920  46.3313340  62.3086800  51.6514680  45.9963040
  61.5944250  36.1480540  32.0280730  61.2466250  35.4704530  31.4483180
  61.7957020  35.6870050  32.8424120  63.7593290  51.1361290  33.6467330
  64.6544080  51.4746260  33.6686090  63.7910920  50.4140700  33.0191610
  70.7387640  49.6664960  46.3533530  70.1389630  49.7257520  45.6097450
  70.8681540  48.7269940  46.4830380  71.9789090  47.4082780  31.6903240
  71.1482050  47.4759430  32.1610470  72.1560920  48.2986900  31.3870100
  71.4345550  44.1530260  34.1937440  72.1964460  44.7226910  34.2997130
  71.4499920  43.5857460  34.9645750  72.4405520  45.0080360  39.0379370
  72.8114350  44.2247680  38.6315340  73.0807450  45.6969460  38.8596670
  69.4239280  46.3916940  44.4509690  68.6099120  46.8214100  44.7135480
  69.8313480  47.0035350  43.8378740  71.4864720  44.4464630  31.3509960
  71.7613560  45.3543510  31.2229180  71.2975460  44.3827160  32.2871950
  67.8840330  37.4709480  32.6463590  68.3025210  37.2840460  31.8060250
  67.5776390  36.6188530  32.9566520  71.3830060  42.3833620  36.3439390
  71.0073660  41.6161550  35.9120680  70.6533180  42.7656320  36.8314320
  70.7729680  41.5305140  45.9778910  70.5415770  41.3017890  45.0776860
  71.0334230  42.4504690  45.9323800  70.8370740  40.6930980  43.1666180
  69.8873450  40.6594520  43.2811170  71.0183750  41.6031090  42.9315950
  70.1480990  39.8664460  35.5839040  70.6440110  39.6335330  36.3687920
  69.9497060  39.0276300  35.1676680  71.5768150  38.5025410  38.1176720
  71.4667430  38.3481450  39.0558990  72.3375740  37.9746350  37.8752130
  69.9233870  34.4419540  44.5759720  70.5606090  35.0553680  44.9418910
  70.0708760  34.4780200  43.6308950  72.4658420  36.3333330  31.3582860
  73.3907730  36.2014510  31.1501150  72.4434210  36.4126150  32.3119310
  72.5396910  37.1043990  33.9839570  71.7448410  37.0389110  34.5132480
  72.7440190  38.0394630  33.9724920  69.4815330  51.1435540  37.9777960
  70.0774400  50.8220110  37.3012380  69.7393480  50.6707360  38.7691230
  72.3488090  51.1507420  44.5288950  71.8546370  51.5476290  43.8116080
  71.7401380  50.5256630  44.9226230  70.0327540  51.7930840  41.8075690
  69.5730510  52.5446650  41.4333710  69.4040000  51.0737310  41.7490490
  63.2018760  50.9927570  41.8092800  63.4896570  50.7381870  40.9325810
  63.7141980  50.4404930  42.3998370  68.9716840  35.4340870  40.4338400
  69.4124930  35.3785970  39.5860000  68.7024430  36.3498880  40.5048580
  70.8355410  35.0656110  38.4447220  70.7743810  34.1217330  38.2978240
  71.6147440  35.1736200  38.9900680  66.8074970  33.8146970  39.1388410
  67.4104340  34.3867180  39.6136930  66.0667960  34.3786410  38.9162310
  69.9509570  34.2168530  34.4128690  70.1460200  35.1151980  34.6796120
  69.1639440  33.9855610  34.9061640  63.2691120  51.9143670  49.1761000
  64.1958430  51.6787940  49.2196960  63.2541550  52.7415670  48.6947030
  71.5036180  51.4569240  36.1735250  71.6788370  50.7706980  35.5296170
  70.8057750  51.9816290  35.7811920  59.3463830  51.8464080  33.7270560
  60.0782650  51.5623360  33.1794450  59.6057500  51.6077360  34.6169940
  69.8368680  51.1413530  49.0002040  70.6294000  50.6462760  48.7928000
  70.1301830  51.8203670  49.6077650  65.9628340  42.0134470  19.8818090
  65.8822390  41.0989080  19.6109800  65.5492760  42.5101540  19.1757800
  64.0946380  43.7913490  21.7627360  63.3188480  43.3113930  22.0525930
  64.7459310  43.1119140  21.5883520  58.1112210  44.1033300  22.6403120
  57.2797090  43.8482010  23.0399630  58.7193190  44.1744070  23.3761040
  68.1153810  48.1973680  20.5426490  67.6535340  47.4260920  20.8713660
  68.9279360  48.2239750  21.0478940  58.0913470  48.1373390  22.8361140
  58.3941510  47.2471130  22.6571360  58.8357060  48.6943610  22.6083390
  56.5204160  39.0635190  16.4245510  55.6320860  39.4051160  16.3225390
  56.8045350  38.8635510  15.5326340  54.4837170  41.6640840  22.3085210
  55.0553280  40.8963040  22.3088850  54.4838710  41.9629600  21.3991820
  64.3417120  50.4831690  20.1630480  63.7228560  50.9389190  19.5924920
  65.1968900  50.6383150  19.7620180  63.5355370  46.4670680  21.7697520
  63.4663650  45.5260620  21.6086650  64.2975230  46.5572090  22.3420090
  55.7262040  37.0725200  24.0954140  55.5464880  36.1750950  24.3756900
  55.3242120  37.6197070  24.7701090  64.5660540  39.2741060  21.9966450
  64.9425360  38.4012940  21.8840120  64.4680050  39.6099760  21.1056890
  58.6965550  37.6466690  17.4583890  58.8032300  38.5470420  17.7652650
  57.7857910  37.5984660  17.1678540  68.3484660  36.7691500  18.9294790
  69.1694280  36.2788070  18.9720270  68.3818740  37.3589160  19.6826630
  56.3448710  39.5685700  22.7036480  57.0258820  39.8324070  23.3223880
  56.0296760  38.7286570  23.0374490  60.5373280  40.6153060  21.7909070
  61.0451500  41.1134030  22.4314090  61.0686520  39.8388260  21.6148430
  72.6384210  38.7858250  25.4938420  71.9336380  39.1739960  24.9753530
  72.9042130  39.4808540  26.0959350  58.8209380  35.2551620  26.0572490
  58.8227820  35.7724010  25.2518390  57.9913690  34.7781800  26.0342420
  65.2080470  45.3670930  17.5562390  64.5897740  45.8320380  16.9925110
  65.7203720  46.0598410  17.9731900  60.0712230  44.8946800  24.2345990
  59.7381610  45.5215720  24.8767060  60.2478910  45.4208680  23.4547660
  68.5846140  38.7091880  21.7022330  67.8801710  38.9976770  22.2825440
  68.9458300  39.5191990  21.3421890  58.5024710  36.9661580  24.0642940
  58.8441520  37.8103630  23.7696810  57.5640520  37.1145320  24.1808280
  59.2831330  46.8627600  26.0495170  59.9005330  47.5378680  25.7679620
  58.4224450  47.2715580  25.9582670  54.5763670  46.0527460  14.9302020
  54.1991650  46.5414560  14.1986920  54.8336740  46.7252740  15.5608550
  70.2008920  48.3267010  23.9649810  69.5172440  48.9966120  23.9566480
  70.7403210  48.5247660  23.1994670  71.6533060  38.1546670  22.0931540
  70.7057970  38.1885650  22.2246970  71.9783050  38.9685620  22.4780900
  62.1852600  34.4543850  20.3887530  62.4927580  33.8990740  19.6723030
  61.2553300  34.5888310  20.2060520  67.7367660  50.1711140  22.6794990
  67.7494820  49.7673430  21.8117250  67.1842880  50.9458430  22.5756420
  69.0313080  46.8927360  17.7685160  68.9209410  45.9501690  17.8934580
  69.0281330  47.2543000  18.6547920  67.1353100  45.0740980  24.0077600
  67.5521890  44.8601090  23.1731060  67.8592920  45.3313770  24.5786220
  64.5733360  42.5192680  17.1247650  63.6462640  42.4530060  17.3536120
  64.7258180  43.4572810  17.0102890  64.5602440  38.7909680  14.1214810
  63.6206110  38.9523640  14.2067270  64.8785700  39.5095360  13.5750800
  71.0815200  43.4728200  24.0993840  70.2533830  43.5421290  23.6243970
  71.6765680  44.0582510  23.6309670  68.6030650  44.0812980  17.6282900
  67.9843070  43.7432530  16.9809200  68.5855100  43.4372740  18.3362090
  68.0457210  40.2597520  25.0448710  67.6328390  41.0851230  25.2988700
  67.3133160  39.6742560  24.8525070  60.1790000  43.0457420  19.9067380
  59.7747000  42.3334670  19.4113280  60.2653120  42.7010660  20.7955420
  60.6471700  46.7324980  22.0706590  60.3499990  46.1270450  21.3914370
  61.5971520  46.7702290  21.9595950  58.8918620  39.8200630  23.6866420
  59.4433210  39.9295970  22.9119670  59.4062130  40.1938230  24.4021650
  68.7357310  50.3056850  25.7329690  68.2587870  51.1129040  25.5402300
  68.0519100  49.6535180  25.8855900  66.7795350  43.3199790  14.6355650
  67.2188630  42.4822220  14.4893470  67.4923770  43.9529190  14.7219790
  58.5661350  43.3419990  27.2971760  58.4269120  44.2142790  27.6659160
  57.6842710  42.9992800  27.1519700  64.8890730  48.2595860  18.6036890
  65.3286640  49.0020190  18.1892280  64.8277620  48.5022430  19.5275850
  70.3612490  34.5742600  12.9496690  70.0485150  34.6669430  13.8495760
  71.1224960  35.1523630  12.8994120  56.8794630  41.9402400  17.4074030
  56.7592230  42.6664490  16.7955300  56.5695520  41.1705310  16.9301940
  72.3156520  50.0668790  30.8021080  72.7916240  50.5451680  31.4810160
  72.9363680  49.9986280  30.0766580  54.5180000  45.1117540  23.2142670
  54.5960420  45.2466310  22.2698390  55.1321680  44.4033430  23.4070790
  55.7627630  46.8117730  19.6248850  55.3555710  46.9532320  18.7702450
  56.6540640  46.5277890  19.4220060  71.7189770  47.2581640  27.9621090
  71.8452830  47.0193520  27.0438270  71.7611150  46.4266180  28.4343170
  65.5806510  50.9609640  26.5315900  66.0951180  50.8717650  27.3338330
  64.7375590  51.3069340  26.8243810  67.5560910  51.2464980  15.9599900
  67.3962050  50.9567920  16.8581730  67.3907620  50.4705110  15.4245130
  60.0349290  51.0263510  17.7371520  59.8591770  50.1099050  17.5239320
  59.1805030  51.3850800  17.9769320  67.2587040  48.7552540  14.5197900
  66.5652200  48.7529830  13.8600180  68.0009900  48.3311860  14.0892070
  66.8236970  50.3815250  18.5946390  67.2793920  49.6004630  18.9085010
  67.1629490  51.0922070  19.1387570  71.5713780  39.3114100  28.9270830
  70.9558050  39.8193770  28.3986290  71.2510200  38.4112430  28.8696770
  59.3458290  35.2837470  20.7897700  58.9026440  36.0647010  20.4582220
  59.9043280  35.6067360  21.4968640  63.6328100  38.1505990  26.3933020
  63.1707470  38.3589010  27.2052960  63.2306210  37.3365340  26.0903690
  68.6332610  39.3714940  27.5229680  67.7826200  39.0720690  27.8438750
  68.4734400  39.6156950  26.6113500  65.7282320  40.8716690  29.6228470
  66.0535730  40.0380440  29.2830700  66.5162650  41.3945210  29.7706800
  62.4617110  34.9048170  15.6703530  61.8371290  34.9008040  16.3956840
  62.3747230  34.0379130  15.2739500  61.3834190  35.8284800  22.6487300
  61.6806520  36.7347630  22.5679320  61.9319750  35.3403580  22.0346870
  59.1372510  40.4071040  18.5178950  58.9113430  40.1908210  19.4225570
  58.3565040  40.8399500  18.1724920  66.3670270  40.4134410  17.1169600
  65.7679160  41.1370210  16.9333220  66.9149880  40.3511190  16.3346050
  61.5771720  41.3056620  29.1839220  61.4815320  40.3651350  29.0339620
  62.4203700  41.5271690  28.7887290  64.9735140  39.0497950  19.1472880
  65.3664710  39.3670150  18.3341570  65.3351990  38.1709830  19.2617400
  56.7082260  37.7170290  27.3373000  56.3145650  38.5645500  27.5445780
  56.0200660  37.0796660  27.5281640  63.2827310  37.8005260  30.4069740
  62.5925630  37.6077460  31.0415830  64.0259610  38.0839900  30.9394040
  54.0099310  35.6398750  21.3703080  53.7212360  36.2101610  22.0828060
  54.7545070  35.1603200  21.7334310  54.1969540  39.5818870  12.5805800
  54.1144210  40.5249630  12.7220790  53.8452600  39.4393780  11.7018150
  65.5590280  41.6403700  23.2423660  64.8271400  42.1490510  23.5913760
  65.1614620  40.8233680  22.9412440  61.9967670  38.3157900  21.6476150
  62.0003730  37.8747850  20.7980690  62.8918790  38.6375230  21.7547970
  57.8470050  38.1984390  20.6070360  57.5070100  38.6759620  21.3637410
  57.0847370  37.7449510  20.2471460  62.0587820  39.3169980  14.6382910
  62.1800640  39.2756460  15.5868730  61.6736330  40.1794130  14.4829640
  66.0216190  37.0937380  22.6546600  66.0388930  37.5446030  23.4988450
  65.7731770  36.1943020  22.8680040  61.0709320  41.6271120  14.0366210
  60.5026220  41.1789370  13.4102120  61.7798320  41.9863900  13.5031360
  69.4486940  34.5069560  28.4932980  69.7732710  33.7759220  29.0190960
  69.4843450  34.1883200  27.5913970  62.2975640  42.3759680  23.3941560
  62.6645770  41.9018250  24.1402900  62.1080700  43.2501250  23.7349900
  55.1616130  37.1203370  19.5235030  54.8763050  36.7559040  20.3613650
  55.0994990  36.3883830  18.9098170  60.0875010  41.4168320  25.7125770
  59.7832080  42.2960300  25.9376130  61.0421470  41.4768110  25.7483210
  58.6156800  45.6229310  16.3092620  57.8419060  45.0826930  16.1491340
  59.3451430  45.1035920  15.9710380  69.3744780  44.6194670  22.1019010
  70.0943900  45.1149960  21.7115120  69.1726600  43.9412560  21.4572880
  64.8354720  36.0132630  16.2448400  64.0219330  35.5145800  16.1693710
  64.6416670  36.8530880  15.8284750  64.7563580  44.6903730  27.9888010
  64.6900890  43.7699400  27.7345600  64.1268720  44.7879170  28.7032650
  67.5503110  40.3852280  14.5410560  68.4382730  40.6969510  14.3661900
  67.5208200  39.5124530  14.1491140  58.6594200  45.2909690  19.9471430
  59.1772870  44.4877950  19.8928320  58.2078220  45.2288830  20.7888260
  63.5463700  46.5575970  15.2198730  63.8879400  47.3018200  14.7242050
  62.7176410  46.8707090  15.5823560  56.1438740  42.2571060  26.8597130
  55.7853680  42.9224910  27.4470470  55.8493300  41.4254610  27.2309750
  59.3451860  42.7155300  29.7436680  59.0452000  42.8612480  28.8464500
  60.1163100  42.1560590  29.6510070  64.6880310  47.5124300  27.7391810
  64.7024850  46.5805260  27.5210720  63.9805410  47.5984060  28.3781580
  69.8217380  41.6964120  14.0090420  69.7381100  42.1278340  13.1586860
  70.5411570  42.1562470  14.4417240  70.8991520  44.1531640  27.0860390
  70.1739710  44.7460420  26.8889780  71.4266980  44.1455180  26.2873760
  70.8504630  48.5506380  16.7372550  70.2080790  47.8962000  17.0116270
  70.4635290  48.9561470  15.9613220  66.4291110  45.8791810  20.5844240
  66.7814930  45.2819940  19.9245610  65.5453440  45.5536040  20.7552490
  62.5154390  46.6389500  17.9914650  63.2025520  47.1858710  18.3722240
  61.7286810  47.1830230  18.0264260  54.6546790  42.2562320  13.4831730
  55.5241640  42.5387120  13.7667650  54.1637110  43.0698190  13.3680540
  61.8181600  43.6435530  17.6040010  62.2744380  44.4540780  17.8300200
  61.4669810  43.3258670  18.4358500  64.1214210  49.1541870  24.8332310
  64.7656430  49.3601250  25.5105730  64.4843650  48.3930270  24.3803160
  57.7193380  33.9873180  18.0762530  57.5908010  33.9791080  19.0247450
  56.8955400  34.3256270  17.7253540  65.3946290  47.1574220  23.5509760
  66.0368520  46.4567380  23.6641930  65.9195640  47.9372660  23.3706650
  69.2402010  47.4422840  13.2748900  69.0139590  46.7253280  13.8673540
  68.8498210  47.1935280  12.4370650  67.1683910  47.9569120  26.7545820
  67.5040150  48.5435810  27.4323740  66.2484250  47.8261830  26.9843610
  55.0218040  51.4689700  14.0493360  55.3815680  52.0679040  13.3950630
  54.8810380  52.0149590  14.8228390  54.7187310  35.7464300  27.5369230
  54.0045830  35.9461220  28.1421840  55.1382350  34.9703870  27.9084030
  68.8218260  45.3594780  14.9363060  68.5339960  45.8207470  15.7240940
  69.6170430  44.8992550  15.2047280  62.9972490  48.0060450  29.9233880
  62.6769360  47.2869690  30.4679570  62.3230850  48.6815520  29.9969940
  61.0386660  48.8520900  14.8667030  61.0296760  49.5850590  14.2511540
  60.1185020  48.6052480  14.9593990  56.6393300  44.0735790  15.6113790
  56.0321250  44.8134690  15.6209090  57.1142650  44.1635150  14.7851990
  66.2126090  38.2386610  25.2870680  66.5806910  37.4181820  25.6150250
  65.3524290  38.2988500  25.7026330  69.5788120  37.1943550  16.0958240
  68.9501280  37.2989220  15.3816470  69.0840040  37.4140330  16.8852120
  64.0246260  48.9149140  13.5292220  64.1258240  48.7113130  12.5994200
  63.1248000  48.6607420  13.7340000  61.5472150  39.4729500  17.5116120
  60.8388300  39.9415840  17.9529730  61.8316630  38.8151510  18.1461310
  63.1728080  40.8926200  25.5108650  63.6713330  41.3672020  26.1760500
  63.3151030  39.9689720  25.7178680  65.5787580  36.1980160  18.9511910
  65.4555360  36.2166290  18.0021420  66.5272140  36.2459100  19.0710310
  62.6664370  51.4335460  18.2239890  62.9205870  51.3956850  17.3019260
  61.7176850  51.3068790  18.2168140  59.7507170  37.7814580  14.8866830
  60.5997700  38.2184730  14.8207020  59.3838440  38.0934840  15.7138890
  70.3794940  37.1094160  26.3537040  69.8768540  37.8499560  26.6930850
  71.1951600  37.4978160  26.0373830  68.6716950  42.3527340  19.7998400
  67.7307090  42.3677570  19.9746090  68.9861020  41.5663300  20.2458700
  58.6498590  44.0346940  13.3602360  59.4161860  43.9228300  13.9227790
  58.7273280  43.3384910  12.7079130  57.3445350  41.4672010  14.0435250
  57.4248940  40.5199520  14.1552650  58.2365100  41.7978890  14.1495910
  70.6742530  49.5236190  21.4752660  70.7989950  50.3467360  21.9476470
  71.5408090  49.3126920  21.1276810  58.1460060  51.6167400  21.1469790
  58.8822540  51.0682860  21.4178360  58.5300980  52.4823410  21.0075780
  55.0305540  47.6840970  17.0211300  54.1045320  47.9262110  17.0116710
  55.4961970  48.5115230  16.8996050  61.2562370  50.7897710  12.9695360
  62.0490980  51.0786540  12.5177150  60.7366720  50.3589880  12.2907840
  65.9882970  46.9093340  30.2830780  65.3821130  46.9324940  29.5426530
  65.6837080  46.1776380  30.8198030  67.4183340  50.6373630  28.8940190
  68.3705090  50.5531650  28.8440430  67.2711560  51.3015340  29.5673980
  70.3092540  50.0167840  14.3932100  70.0234050  49.6032980  13.5786280
  70.1112090  50.9455550  14.2732620  61.7739770  46.0101120  12.8337710
  61.6690410  45.3953470  13.5599090  61.6063990  45.4867010  12.0500720
  61.9254090  44.6957920  28.8126940  61.1599760  45.2642920  28.7281610
  62.1070050  44.4034130  27.9195170  65.0142500  45.0721150  13.4379700
  64.4652600  45.5190450  14.0822440  65.6361760  44.5670400  13.9617370
  69.0677440  46.4263250  29.3701960  69.8086910  46.7639010  28.8669420
  68.3050120  46.5955310  28.8171730  56.9039230  41.4316520  30.1741490
  56.9444570  41.1330390  31.0826720  57.7584730  41.8324130  30.0149010
  60.6817620  44.0312070  15.3345000  61.1034040  43.8651940  16.1776390
  60.8068460  43.2212300  14.8400140  58.8445040  40.0108620  28.1415980
  58.3141500  39.5199570  27.5139320  59.5133110  40.4392820  27.6073910
  63.1945260  43.0549680  12.5822100  63.7150920  42.3398700  12.2163250
  63.8413660  43.6935550  12.8822610  67.7423100  44.4778080  27.9057170
  68.1564120  44.6323160  28.7547590  66.8074100  44.6033300  28.0682950
  68.2145270  41.8174240  29.9096320  68.7966040  41.0626560  29.8216800
  68.3907040  42.3481680  29.1327800  59.3317340  36.9770990  28.2213270
  59.2374210  36.3591740  27.4964140  58.7514730  37.7037280  27.9943180
  62.0978780  35.5344230  25.2540660  61.6496080  35.5568490  24.4086210
  61.4643980  35.1363250  25.8510960  62.5038330  44.4298560  25.8753100
  62.9226440  45.2731290  25.7029340  61.5846960  44.5670600  25.6459880
  64.8402230  42.1614740  27.2590940  64.9598440  41.5655880  27.9985780
  65.6996230  42.1984430  26.8392240  67.1790130  42.7151930  25.8353450
  66.6525350  43.2394550  25.2318590  67.5221470  43.3479320  26.4663180
  59.5776520  40.1045300  12.2803160  59.3765580  39.2412660  12.6416500
  59.4068570  40.0178660  11.3424760  60.3545750  50.7351570  26.9910830
  59.8166840  51.4597630  26.6719530  60.6079710  50.2581910  26.2008170
  61.6071000  38.7036090  28.5166760  62.1970690  38.3951940  29.2044580
  60.7891240  38.2315840  28.6726660  66.4264430  38.3201900  28.7499780
  65.7379950  37.6583440  28.6849770  67.1470450  37.8740170  29.1948240
  67.0564830  34.9153530  14.8090040  67.3367120  34.0721430  15.1649460
  66.2830560  35.1476640  15.3228790  58.3759320  37.2045920  12.2681040
  58.6785220  37.2113350  11.3600190  59.1153910  36.8543780  12.7648700
  63.2107960  51.9702780  27.2497480  63.1366660  52.8737920  27.5569850
  62.3086800  51.6514680  27.2219550  61.5944250  36.1480540  13.2537240
  61.2466250  35.4704530  12.6739690  61.7957020  35.6870050  14.0680630
  63.7593290  51.1361290  14.8723840  64.6544080  51.4746260  14.8942600
  63.7910920  50.4140700  14.2448120  57.3989450  46.5088340  13.1010840
  57.8364320  47.0518010  13.7568420  57.8837180  45.6835290  13.1107180
  54.6135250  49.2977370  20.5531100  54.9438260  48.4298430  20.3209740
  55.0426250  49.5035890  21.3836060  59.2097170  47.6286380  18.2133070
  58.9092710  47.5051350  19.1136980  59.1034660  46.7694970  17.8048800
  70.7387640  49.6664960  27.5790040  70.1389630  49.7257520  26.8353960
  70.8681540  48.7269940  27.7086890  71.9789090  47.4082780  12.9159750
  71.1482050  47.4759430  13.3866980  72.1560920  48.2986900  12.6126610
  71.4345550  44.1530260  15.4193950  72.1964460  44.7226910  15.5253640
  71.4499920  43.5857460  16.1902260  54.9349890  42.6768190  19.6501610
  54.2798730  42.4079830  19.0061310  55.7727840  42.5672670  19.2003590
  72.4405520  45.0080360  20.2635880  72.8114350  44.2247680  19.8571850
  73.0807450  45.6969460  20.0853180  69.4239280  46.3916940  25.6766200
  68.6099120  46.8214100  25.9391990  69.8313480  47.0035350  25.0635250
  71.4864720  44.4464630  12.5766470  71.7613560  45.3543510  12.4485690
  71.2975460  44.3827160  13.5128460  67.8840330  37.4709480  13.8720100
  68.3025210  37.2840460  13.0316760  67.5776390  36.6188530  14.1823030
  71.3830060  42.3833620  17.5695900  71.0073660  41.6161550  17.1377190
  70.6533180  42.7656320  18.0570830  55.9725820  43.0620760  24.1904950
  56.3398860  42.9748160  25.0700970  55.4036640  42.2987310  24.0911810
  70.7729680  41.5305140  27.2035420  70.5415770  41.3017890  26.3033370
  71.0334230  42.4504690  27.1580310  55.5241820  39.9729850  28.0963370
  54.6297870  39.9396610  28.4357080  56.0639370  40.1716640  28.8614620
  69.2117750  36.7561570  29.9815120  70.0887930  36.7644970  30.3649120
  69.2238590  36.0192410  29.3707470  54.1487970  39.8867120  15.5926940
  53.2452050  40.1497320  15.4178600  54.6328590  40.1578290  14.8126900
  70.6581020  40.6091110  20.8703140  71.1818500  40.1153760  20.2393310
  71.2440440  40.7441470  21.6150710  70.8370740  40.6930980  24.3922690
  69.8873450  40.6594520  24.5067680  71.0183750  41.6031090  24.1572460
  56.6915180  38.9432660  13.5021320  57.4006880  38.5215880  13.0168600
  55.9755120  39.0107890  12.8704670  56.3389340  34.9971990  12.5423970
  57.0617470  35.5380930  12.8605190  56.6113860  34.7235410  11.6665510
  70.1480990  39.8664460  16.8095550  70.6440110  39.6335330  17.5944430
  69.9497060  39.0276300  16.3933190  56.0281530  34.2478180  22.4446590
  56.6757720  33.6975560  22.0041750  56.4483370  34.5021330  23.2662400
  71.5768150  38.5025410  19.3433230  71.4667430  38.3481450  20.2815500
  72.3375740  37.9746350  19.1008640  69.9233870  34.4419540  25.8016230
  70.5606090  35.0553680  26.1675420  70.0708760  34.4780200  24.8565460
  72.4658420  36.3333330  12.5839370  73.3907730  36.2014510  12.3757660
  72.4434210  36.4126150  13.5375820  72.5396910  37.1043990  15.2096080
  71.7448410  37.0389110  15.7388990  72.7440190  38.0394630  15.1981430
  69.4815330  51.1435540  19.2034470  70.0774400  50.8220110  18.5268890
  69.7393480  50.6707360  19.9947740  55.7813530  34.4033850  25.1871910
  55.4328350  34.8597670  25.9530090  55.4501230  33.5090980  25.2694340
  61.0883930  49.1313040  24.9534820  60.8475290  49.3987600  24.0665340
  62.0286570  49.3018770  25.0085680  63.2938350  35.5945730  28.7091330
  63.2327240  36.1867560  29.4586740  64.2338730  35.4871690  28.5641590
  65.9312910  35.2515790  28.3483620  66.5453320  35.5695080  27.6864700
  66.4762470  34.7664380  28.9679480  72.3488090  51.1507420  25.7545460
  71.8546370  51.5476290  25.0372590  71.7401380  50.5256630  26.1482740
  56.4534170  33.9310050  28.4622680  57.0017160  33.7498100  27.6988790
  56.5189480  33.1404160  28.9978990  66.6720950  33.8147930  24.6752910
  65.7980790  34.1483040  24.4725840  66.5631700  33.3421110  25.5004780
  67.5792930  36.0218800  26.0594630  67.2506290  35.2070560  25.6796360
  68.5275230  35.9788610  25.9360320  70.0327540  51.7930840  23.0332200
  69.5730510  52.5446650  22.6590220  69.4040000  51.0737310  22.9747000
  56.8578160  47.8874080  25.4230920  56.1312220  47.2679370  25.3556870
  56.9187310  48.2814690  24.5529000  60.4623260  50.1019080  22.2080330
  60.9788280  49.4906440  21.6828590  61.1120640  50.6047860  22.6991340
  63.2018760  50.9927570  23.0349310  63.4896570  50.7381870  22.1582320
  63.7141980  50.4404930  23.6254880  64.4195770  34.7317770  23.6145820
  63.6367560  35.2063270  23.8942580  64.1258700  33.8272600  23.5059000
  68.9716840  35.4340870  21.6594910  69.4124930  35.3785970  20.8116510
  68.7024430  36.3498880  21.7305090  70.8355410  35.0656110  19.6703730
  70.7743810  34.1217330  19.5234750  71.6147440  35.1736200  20.2157190
  55.1408160  51.2048470  18.6327680  54.9730200  50.5719150  19.3309570
  54.2742670  51.4107870  18.2821870  55.7636180  35.0365250  16.1359540
  56.5215540  35.1494130  15.5623570  55.3013350  35.8734450  16.0902970
  62.3049990  37.1504520  19.1261850  61.4924500  36.7761410  18.7857730
  62.8091630  36.3949600  19.4283040  66.8074970  33.8146970  20.3644920
  67.4104340  34.3867180  20.8393440  66.0667960  34.3786410  20.1418820
  69.9509570  34.2168530  15.6385200  70.1460200  35.1151980  15.9052630
  69.1639440  33.9855610  16.1318150  56.7470860  49.8981700  16.0777820
  56.2218480  50.2789730  15.3739780  56.6715440  50.5232470  16.7987530
  58.1361330  35.5629300  14.6761510  58.6654090  34.7759100  14.5469460
  58.7689650  36.2420490  14.9097040  60.3299170  35.3004440  17.7306900
  59.7001910  34.5991750  17.8977030  59.7904310  36.0608570  17.5140060
  63.2691120  51.9143670  30.4017510  64.1958430  51.6787940  30.4453470
  63.2541550  52.7415670  29.9203540  71.5036180  51.4569240  17.3991760
  71.6788370  50.7706980  16.7552680  70.8057750  51.9816290  17.0068430
  60.4554730  34.5788420  30.1659390  60.1739000  35.0822020  29.4020210
  60.8374430  33.7810170  29.8001520  59.3463830  51.8464080  14.9527070
  60.0782650  51.5623360  14.4050960  59.6057500  51.6077360  15.8426450
  58.5078620  47.9628810  14.9573400  57.8787500  48.4313910  15.5059230
  58.6226450  47.1178030  15.3919590  67.0570190  33.9942000  30.7439860
  66.9435640  34.3136610  31.6391380  67.8739930  34.3954510  30.4477140
  69.8368680  51.1413530  30.2258550  70.6294000  50.6462760  30.0184510
  70.1301830  51.8203670  30.8334160  64.0946380  43.7913490   2.9883870
  63.3188480  43.3113930   3.2782440  64.7459310  43.1119140   2.8140030
  58.1112210  44.1033300   3.8659630  57.2797090  43.8482010   4.2656140
  58.7193190  44.1744070   4.6017550  68.1153810  48.1973680   1.7683000
  67.6535340  47.4260920   2.0970170  68.9279360  48.2239750   2.2735450
  58.0913470  48.1373390   4.0617650  58.3941510  47.2471130   3.8827870
  58.8357060  48.6943610   3.8339900  54.4837170  41.6640840   3.5341720
  55.0553280  40.8963040   3.5345360  54.4838710  41.9629600   2.6248330
  63.5355370  46.4670680   2.9954030  63.4663650  45.5260620   2.8343160
  64.2975230  46.5572090   3.5676600  55.7262040  37.0725200   5.3210650
  55.5464880  36.1750950   5.6013410  55.3242120  37.6197070   5.9957600
  64.5660540  39.2741060   3.2222960  64.9425360  38.4012940   3.1096630
  64.4680050  39.6099760   2.3313400  56.3448710  39.5685700   3.9292990
  57.0258820  39.8324070   4.5480390  56.0296760  38.7286570   4.2631000
  60.5373280  40.6153060   3.0165580  61.0451500  41.1134030   3.6570600
  61.0686520  39.8388260   2.8404940  72.6384210  38.7858250   6.7194930
  71.9336380  39.1739960   6.2010040  72.9042130  39.4808540   7.3215860
  58.8209380  35.2551620   7.2829000  58.8227820  35.7724010   6.4774900
  57.9913690  34.7781800   7.2598930  60.0712230  44.8946800   5.4602500
  59.7381610  45.5215720   6.1023570  60.2478910  45.4208680   4.6804170
  68.5846140  38.7091880   2.9278840  67.8801710  38.9976770   3.5081950
  68.9458300  39.5191990   2.5678400  58.5024710  36.9661580   5.2899450
  58.8441520  37.8103630   4.9953320  57.5640520  37.1145320   5.4064790
  59.2831330  46.8627600   7.2751680  59.9005330  47.5378680   6.9936130
  58.4224450  47.2715580   7.1839180  70.2008920  48.3267010   5.1906320
  69.5172440  48.9966120   5.1822990  70.7403210  48.5247660   4.4251180
  71.6533060  38.1546670   3.3188050  70.7057970  38.1885650   3.4503480
  71.9783050  38.9685620   3.7037410  67.7367660  50.1711140   3.9051500
  67.7494820  49.7673430   3.0373760  67.1842880  50.9458430   3.8012930
  67.1353100  45.0740980   5.2334110  67.5521890  44.8601090   4.3987570
  67.8592920  45.3313770   5.8042730  71.0815200  43.4728200   5.3250350
  70.2533830  43.5421290   4.8500480  71.6765680  44.0582510   4.8566180
  68.0457210  40.2597520   6.2705220  67.6328390  41.0851230   6.5245210
  67.3133160  39.6742560   6.0781580  60.6471700  46.7324980   3.2963100
  60.3499990  46.1270450   2.6170880  61.5971520  46.7702290   3.1852460
  58.8918620  39.8200630   4.9122930  59.4433210  39.9295970   4.1376180
  59.4062130  40.1938230   5.6278160  68.7357310  50.3056850   6.9586200
  68.2587870  51.1129040   6.7658810  68.0519100  49.6535180   7.1112410
  59.7390130  46.4706670   9.9470900  58.8418660  46.6946640  10.1944300
  59.7643000  46.5941610   8.9982300  58.5661350  43.3419990   8.5228270
  58.4269120  44.2142790   8.8915670  57.6842710  42.9992800   8.3776210
  60.3641700  49.2841690  10.7313420  60.3357130  49.6884640   9.8641850
  60.2006670  48.3552050  10.5685020  72.3156520  50.0668790  12.0277590
  72.7916240  50.5451680  12.7066670  72.9363680  49.9986280  11.3023090
  54.5180000  45.1117540   4.4399180  54.5960420  45.2466310   3.4954900
  55.1321680  44.4033430   4.6327300  71.7189770  47.2581640   9.1877600
  71.8452830  47.0193520   8.2694780  71.7611150  46.4266180   9.6599680
  65.5806510  50.9609640   7.7572410  66.0951180  50.8717650   8.5594840
  64.7375590  51.3069340   8.0500320  71.5713780  39.3114100  10.1527340
  70.9558050  39.8193770   9.6242800  71.2510200  38.4112430  10.0953280
  54.5739520  46.1531710   6.9793640  54.7370560  45.6837070   6.1613010
  55.0391970  45.6455270   7.6442480  59.3458290  35.2837470   2.0154210
  58.9026440  36.0647010   1.6838730  59.9043280  35.6067360   2.7225150
  63.6328100  38.1505990   7.6189530  63.1707470  38.3589010   8.4309470
  63.2306210  37.3365340   7.3160200  68.6332610  39.3714940   8.7486190
  67.7826200  39.0720690   9.0695260  68.4734400  39.6156950   7.8370010
  65.7282320  40.8716690  10.8484980  66.0535730  40.0380440  10.5087210
  66.5162650  41.3945210  10.9963310  61.3834190  35.8284800   3.8743810
  61.6806520  36.7347630   3.7935830  61.9319750  35.3403580   3.2603380
  61.5771720  41.3056620  10.4095730  61.4815320  40.3651350  10.2596130
  62.4203700  41.5271690  10.0143800  56.7082260  37.7170290   8.5629510
  56.3145650  38.5645500   8.7702290  56.0200660  37.0796660   8.7538150
  63.2827310  37.8005260  11.6326250  62.5925630  37.6077460  12.2672340
  64.0259610  38.0839900  12.1650550  54.0099310  35.6398750   2.5959590
  53.7212360  36.2101610   3.3084570  54.7545070  35.1603200   2.9590820
  65.5590280  41.6403700   4.4680170  64.8271400  42.1490510   4.8170270
  65.1614620  40.8233680   4.1668950  61.9967670  38.3157900   2.8732660
  62.0003730  37.8747850   2.0237200  62.8918790  38.6375230   2.9804480
  66.0216190  37.0937380   3.8803110  66.0388930  37.5446030   4.7244960
  65.7731770  36.1943020   4.0936550  69.4486940  34.5069560   9.7189490
  69.7732710  33.7759220  10.2447470  69.4843450  34.1883200   8.8170480
  56.1478500  45.5283140   9.1389450  55.7633290  44.8876810   9.7372410
  56.4590690  46.2319260   9.7084180  62.2975640  42.3759680   4.6198070
  62.6645770  41.9018250   5.3659410  62.1080700  43.2501250   4.9606410
  60.0875010  41.4168320   6.9382280  59.7832080  42.2960300   7.1632640
  61.0421470  41.4768110   6.9739720  69.3744780  44.6194670   3.3275520
  70.0943900  45.1149960   2.9371630  69.1726600  43.9412560   2.6829390
  64.7563580  44.6903730   9.2144520  64.6900890  43.7699400   8.9602110
  64.1268720  44.7879170   9.9289160  56.1438740  42.2571060   8.0853640
  55.7853680  42.9224910   8.6726980  55.8493300  41.4254610   8.4566260
  59.3451860  42.7155300  10.9693190  59.0452000  42.8612480  10.0721010
  60.1163100  42.1560590  10.8766580  64.6880310  47.5124300   8.9648320
  64.7024850  46.5805260   8.7467230  63.9805410  47.5984060   9.6038090
  70.8991520  44.1531640   8.3116900  70.1739710  44.7460420   8.1146290
  71.4266980  44.1455180   7.5130270  64.1214210  49.1541870   6.0588820
  64.7656430  49.3601250   6.7362240  64.4843650  48.3930270   5.6059670
  65.3946290  47.1574220   4.7766270  66.0368520  46.4567380   4.8898440
  65.9195640  47.9372660   4.5963160  67.1683910  47.9569120   7.9802330
  67.5040150  48.5435810   8.6580250  66.2484250  47.8261830   8.2100120
  54.7187310  35.7464300   8.7625740  54.0045830  35.9461220   9.3678350
  55.1382350  34.9703870   9.1340540  55.0059900  49.7344560   9.7492270
  55.1151020  48.7939300   9.6087660  54.3540460  49.9999310   9.1006000
  62.9972490  48.0060450  11.1490390  62.6769360  47.2869690  11.6936080
  62.3230850  48.6815520  11.2226450  66.2126090  38.2386610   6.5127190
  66.5806910  37.4181820   6.8406760  65.3524290  38.2988500   6.9282840
  63.1728080  40.8926200   6.7365160  63.6713330  41.3672020   7.4017010
  63.3151030  39.9689720   6.9435190  70.3794940  37.1094160   7.5793550
  69.8768540  37.8499560   7.9187360  71.1951600  37.4978160   7.2630340
  70.6742530  49.5236190   2.7009170  70.7989950  50.3467360   3.1732980
  71.5408090  49.3126920   2.3533320  58.1460060  51.6167400   2.3726300
  58.8822540  51.0682860   2.6434870  58.5300980  52.4823410   2.2332290
  57.1518340  50.8013470  11.5611880  57.9531070  51.1225520  11.9747280
  56.6370160  50.4409050  12.2831790  65.9882970  46.9093340  11.5087290
  65.3821130  46.9324940  10.7683040  65.6837080  46.1776380  12.0454540
  67.4183340  50.6373630  10.1196700  68.3705090  50.5531650  10.0696940
  67.2711560  51.3015340  10.7930490  54.8716150  43.2886930  10.5047930
  55.3755170  42.7094210  11.0764160  54.1323570  43.5727160  11.0424300
  61.9254090  44.6957920  10.0383450  61.1599760  45.2642920   9.9538120
  62.1070050  44.4034130   9.1451680  69.0677440  46.4263250  10.5958470
  69.8086910  46.7639010  10.0925930  68.3050120  46.5955310  10.0428240
  56.9039230  41.4316520  11.3998000  56.9444570  41.1330390  12.3083230
  57.7584730  41.8324130  11.2405520  58.8445040  40.0108620   9.3672490
  58.3141500  39.5199570   8.7395830  59.5133110  40.4392820   8.8330420
  67.7423100  44.4778080   9.1313680  68.1564120  44.6323160   9.9804100
  66.8074100  44.6033300   9.2939460  68.2145270  41.8174240  11.1352830
  68.7966040  41.0626560  11.0473310  68.3907040  42.3481680  10.3584310
  59.3317340  36.9770990   9.4469780  59.2374210  36.3591740   8.7220650
  58.7514730  37.7037280   9.2199690  62.0978780  35.5344230   6.4797170
  61.6496080  35.5568490   5.6342720  61.4643980  35.1363250   7.0767470
  62.5038330  44.4298560   7.1009610  62.9226440  45.2731290   6.9285850
  61.5846960  44.5670600   6.8716390  64.8402230  42.1614740   8.4847450
  64.9598440  41.5655880   9.2242290  65.6996230  42.1984430   8.0648750
  67.1790130  42.7151930   7.0609960  66.6525350  43.2394550   6.4575100
  67.5221470  43.3479320   7.6919690  60.3545750  50.7351570   8.2167340
  59.8166840  51.4597630   7.8976040  60.6079710  50.2581910   7.4264680
  61.6071000  38.7036090   9.7423270  62.1970690  38.3951940  10.4301090
  60.7891240  38.2315840   9.8983170  66.4264430  38.3201900   9.9756290
  65.7379950  37.6583440   9.9106280  67.1470450  37.8740170  10.4204750
  63.2107960  51.9702780   8.4753990  63.1366660  52.8737920   8.7826360
  62.3086800  51.6514680   8.4476060  55.1025460  50.1647960   4.5169240
  54.6656450  50.3448760   5.3493390  55.6703140  50.9222580   4.3750960
  70.7387640  49.6664960   8.8046550  70.1389630  49.7257520   8.0610470
  70.8681540  48.7269940   8.9343400  69.4239280  46.3916940   6.9022710
  68.6099120  46.8214100   7.1648500  69.8313480  47.0035350   6.2891760
  55.9725820  43.0620760   5.4161460  56.3398860  42.9748160   6.2957480
  55.4036640  42.2987310   5.3168320  70.7729680  41.5305140   8.4291930
  70.5415770  41.3017890   7.5289880  71.0334230  42.4504690   8.3836820
  55.5241820  39.9729850   9.3219880  54.6297870  39.9396610   9.6613590
  56.0639370  40.1716640  10.0871130  69.2117750  36.7561570  11.2071630
  70.0887930  36.7644970  11.5905630  69.2238590  36.0192410  10.5963980
  70.8370740  40.6930980   5.6179200  69.8873450  40.6594520   5.7324190
  71.0183750  41.6031090   5.3828970  56.0281530  34.2478180   3.6703100
  56.6757720  33.6975560   3.2298260  56.4483370  34.5021330   4.4918910
  69.9233870  34.4419540   7.0272740  70.5606090  35.0553680   7.3931930
  70.0708760  34.4780200   6.0821970  55.7813530  34.4033850   6.4128420
  55.4328350  34.8597670   7.1786600  55.4501230  33.5090980   6.4950850
  57.3877900  47.5753450  10.5781610  57.3447530  47.2046360  11.4596070
  57.5188910  48.5131020  10.7183430  61.0883930  49.1313040   6.1791330
  60.8475290  49.3987600   5.2921850  62.0286570  49.3018770   6.2342190
  63.2938350  35.5945730   9.9347840  63.2327240  36.1867560  10.6843250
  64.2338730  35.4871690   9.7898100  65.9312910  35.2515790   9.5740130
  66.5453320  35.5695080   8.9121210  66.4762470  34.7664380  10.1935990
  72.3488090  51.1507420   6.9801970  71.8546370  51.5476290   6.2629100
  71.7401380  50.5256630   7.3739250  56.4534170  33.9310050   9.6879190
  57.0017160  33.7498100   8.9245300  56.5189480  33.1404160  10.2235500
  57.2265930  50.5215700   7.6979390  56.6326250  50.3900400   8.4369430
  57.2189770  49.6853840   7.2321490  66.6720950  33.8147930   5.9009420
  65.7980790  34.1483040   5.6982350  66.5631700  33.3421110   6.7261290
  67.5792930  36.0218800   7.2851140  67.2506290  35.2070560   6.9052870
  68.5275230  35.9788610   7.1616830  70.0327540  51.7930840   4.2588710
  69.5730510  52.5446650   3.8846730  69.4040000  51.0737310   4.2003510
  56.8578160  47.8874080   6.6487430  56.1312220  47.2679370   6.5813380
  56.9187310  48.2814690   5.7785510  60.4623260  50.1019080   3.4336840
  60.9788280  49.4906440   2.9085100  61.1120640  50.6047860   3.9247850
  63.2018760  50.9927570   4.2605820  63.4896570  50.7381870   3.3838830
  63.7141980  50.4404930   4.8511390  64.4195770  34.7317770   4.8402330
  63.6367560  35.2063270   5.1199090  64.1258700  33.8272600   4.7315510
  68.9716840  35.4340870   2.8851420  69.4124930  35.3785970   2.0373020
  68.7024430  36.3498880   2.9561600  63.2691120  51.9143670  11.6274020
  64.1958430  51.6787940  11.6709980  63.2541550  52.7415670  11.1460050
  60.4554730  34.5788420  11.3915900  60.1739000  35.0822020  10.6276720
  60.8374430  33.7810170  11.0258030  67.0570190  33.9942000  11.9696370
  66.9435640  34.3136610  12.8647890  67.8739930  34.3954510  11.6733650
  69.8368680  51.1413530  11.4515060  70.6294000  50.6462760  11.2441020
  70.1301830  51.8203670  12.0590670  65.9628340  23.2390980  76.2048560
  65.8822390  22.3245590  75.9340270  65.5492760  23.7358050  75.4988270
  64.0946380  25.0170000  78.0857830  63.3188480  24.5370440  78.3756400
  64.7459310  24.3375650  77.9113990  68.1153810  29.4230190  76.8656960
  67.6535340  28.6517430  77.1944130  68.9279360  29.4496260  77.3709410
  56.5204160  20.2891700  72.7475980  55.6320860  20.6307670  72.6455860
  56.8045350  20.0892020  71.8556810  54.4837170  22.8897350  78.6315680
  55.0553280  22.1219550  78.6319320  54.4838710  23.1886110  77.7222290
  64.3417120  31.7088200  76.4860950  63.7228560  32.1645700  75.9155390
  65.1968900  31.8639660  76.0850650  63.5355370  27.6927190  78.0927990
  63.4663650  26.7517130  77.9317120  64.2975230  27.7828600  78.6650560
  64.5660540  20.4997570  78.3196920  64.9425360  19.6269450  78.2070590
  64.4680050  20.8356270  77.4287360  58.6965550  18.8723200  73.7814360
  58.8032300  19.7726930  74.0883120  57.7857910  18.8241170  73.4909010
  68.3484660  17.9948010  75.2525260  69.1694280  17.5044580  75.2950740
  68.3818740  18.5845670  76.0057100  60.5373280  21.8409570  78.1139540
  61.0451500  22.3390540  78.7544560  61.0686520  21.0644770  77.9378900
  65.2080470  26.5927440  73.8792860  64.5897740  27.0576890  73.3155580
  65.7203720  27.2854920  74.2962370  68.5846140  19.9348390  78.0252800
  67.8801710  20.2233280  78.6055910  68.9458300  20.7448500  77.6652360
  54.5763670  27.2783970  71.2532490  54.1991650  27.7671070  70.5217390
  54.8336740  27.9509250  71.8839020  71.6533060  19.3803180  78.4162010
  70.7057970  19.4142160  78.5477440  71.9783050  20.1942130  78.8011370
  62.1852600  15.6800360  76.7118000  62.4927580  15.1247250  75.9953500
  61.2553300  15.8144820  76.5290990  69.0313080  28.1183870  74.0915630
  68.9209410  27.1758200  74.2165050  69.0281330  28.4799510  74.9778390
  64.5733360  23.7449190  73.4478120  63.6462640  23.6786570  73.6766590
  64.7258180  24.6829320  73.3333360  64.5602440  20.0166190  70.4445280
  63.6206110  20.1780150  70.5297740  64.8785700  20.7351870  69.8981270
  68.6030650  25.3069490  73.9513370  67.9843070  24.9689040  73.3039670
  68.5855100  24.6629250  74.6592560  60.1790000  24.2713930  76.2297850
  59.7747000  23.5591180  75.7343750  60.2653120  23.9267170  77.1185890
  60.6471700  27.9581490  78.3937060  60.3499990  27.3526960  77.7144840
  61.5971520  27.9958800  78.2826420  66.7795350  24.5456300  70.9586120
  67.2188630  23.7078730  70.8123940  67.4923770  25.1785700  71.0450260
  64.8890730  29.4852370  74.9267360  65.3286640  30.2276700  74.5122750
  64.8277620  29.7278940  75.8506320  70.3612490  15.7999110  69.2727160
  70.0485150  15.8925940  70.1726230  71.1224960  16.3780140  69.2224590
  56.8794630  23.1658910  73.7304500  56.7592230  23.8921000  73.1185770
  56.5695520  22.3961820  73.2532410  55.7627630  28.0374240  75.9479320
  55.3555710  28.1788830  75.0932920  56.6540640  27.7534400  75.7450530
  67.5560910  32.4721490  72.2830370  67.3962050  32.1824430  73.1812200
  67.3907620  31.6961620  71.7475600  60.0349290  32.2520020  74.0601990
  59.8591770  31.3355560  73.8469790  59.1805030  32.6107310  74.2999790
  67.2587040  29.9809050  70.8428370  66.5652200  29.9786340  70.1830650
  68.0009900  29.5568370  70.4122540  66.8236970  31.6071760  74.9176860
  67.2793920  30.8261140  75.2315480  67.1629490  32.3178580  75.4618040
  59.3458290  16.5093980  77.1128170  58.9026440  17.2903520  76.7812690
  59.9043280  16.8323870  77.8199110  62.4617110  16.1304680  71.9934000
  61.8371290  16.1264550  72.7187310  62.3747230  15.2635640  71.5969970
  59.1372510  21.6327550  74.8409420  58.9113430  21.4164720  75.7456040
  58.3565040  22.0656010  74.4955390  66.3670270  21.6390920  73.4400070
  65.7679160  22.3626720  73.2563690  66.9149880  21.5767700  72.6576520
  64.9735140  20.2754460  75.4703350  65.3664710  20.5926660  74.6572040
  65.3351990  19.3966340  75.5847870  54.0099310  16.8655260  77.6933550
  53.7212360  17.4358120  78.4058530  54.7545070  16.3859710  78.0564780
  54.1969540  20.8075380  68.9036270  54.1144210  21.7506140  69.0451260
  53.8452600  20.6650290  68.0248620  61.9967670  19.5414410  77.9706620
  62.0003730  19.1004360  77.1211160  62.8918790  19.8631740  78.0778440
  57.8470050  19.4240900  76.9300830  57.5070100  19.9016130  77.6867880
  57.0847370  18.9706020  76.5701930  62.0587820  20.5426490  70.9613380
  62.1800640  20.5012970  71.9099200  61.6736330  21.4050640  70.8060110
  61.0709320  22.8527630  70.3596680  60.5026220  22.4045880  69.7332590
  61.7798320  23.2120410  69.8261830  55.1616130  18.3459880  75.8465500
  54.8763050  17.9815550  76.6844120  55.0994990  17.6140340  75.2328640
  58.6156800  26.8485820  72.6323090  57.8419060  26.3083440  72.4721810
  59.3451430  26.3292430  72.2940850  69.3744780  25.8451180  78.4249480
  70.0943900  26.3406470  78.0345590  69.1726600  25.1669070  77.7803350
  64.8354720  17.2389140  72.5678870  64.0219330  16.7402310  72.4924180
  64.6416670  18.0787390  72.1515220  67.5503110  21.6108790  70.8641030
  68.4382730  21.9226020  70.6892370  67.5208200  20.7381040  70.4721610
  58.6594200  26.5166200  76.2701900  59.1772870  25.7134460  76.2158790
  58.2078220  26.4545340  77.1118730  63.5463700  27.7832480  71.5429200
  63.8879400  28.5274710  71.0472520  62.7176410  28.0963600  71.9054030
  69.8217380  22.9220630  70.3320890  69.7381100  23.3534850  69.4817330
  70.5411570  23.3818980  70.7647710  70.8504630  29.7762890  73.0603020
  70.2080790  29.1218510  73.3346740  70.4635290  30.1817980  72.2843690
  66.4291110  27.1048320  76.9074710  66.7814930  26.5076450  76.2476080
  65.5453440  26.7792550  77.0782960  62.5154390  27.8646010  74.3145120
  63.2025520  28.4115220  74.6952710  61.7286810  28.4086740  74.3494730
  54.6546790  23.4818830  69.8062200  55.5241640  23.7643630  70.0898120
  54.1637110  24.2954700  69.6911010  61.8181600  24.8692040  73.9270480
  62.2744380  25.6797290  74.1530670  61.4669810  24.5515180  74.7588970
  57.7193380  15.2129690  74.3993000  57.5908010  15.2047590  75.3477920
  56.8955400  15.5512780  74.0484010  69.2402010  28.6679350  69.5979370
  69.0139590  27.9509790  70.1904010  68.8498210  28.4191790  68.7601120
  55.0218040  32.6946210  70.3723830  55.3815680  33.2935550  69.7181100
  54.8810380  33.2406100  71.1458860  68.8218260  26.5851290  71.2593530
  68.5339960  27.0463980  72.0471410  69.6170430  26.1249060  71.5277750
  61.0386660  30.0777410  71.1897500  61.0296760  30.8107100  70.5742010
  60.1185020  29.8308990  71.2824460  56.6393300  25.2992300  71.9344260
  56.0321250  26.0391200  71.9439560  57.1142650  25.3891660  71.1082460
  69.5788120  18.4200060  72.4188710  68.9501280  18.5245730  71.7046940
  69.0840040  18.6396840  73.2082590  64.0246260  30.1405650  69.8522690
  64.1258240  29.9369640  68.9224670  63.1248000  29.8863930  70.0570470
  61.5472150  20.6986010  73.8346590  60.8388300  21.1672350  74.2760200
  61.8316630  20.0408020  74.4691780  65.5787580  17.4236670  75.2742380
  65.4555360  17.4422800  74.3251890  66.5272140  17.4715610  75.3940780
  62.6664370  32.6591970  74.5470360  62.9205870  32.6213360  73.6249730
  61.7176850  32.5325300  74.5398610  59.7507170  19.0071090  71.2097300
  60.5997700  19.4441240  71.1437490  59.3838440  19.3191350  72.0369360
  68.6716950  23.5783850  76.1228870  67.7307090  23.5934080  76.2976560
  68.9861020  22.7919810  76.5689170  58.6498590  25.2603450  69.6832830
  59.4161860  25.1484810  70.2458260  58.7273280  24.5641420  69.0309600
  57.3445350  22.6928520  70.3665720  57.4248940  21.7456030  70.4783120
  58.2365100  23.0235400  70.4726380  70.6742530  30.7492700  77.7983130
  70.7989950  31.5723870  78.2706940  71.5408090  30.5383430  77.4507280
  58.1460060  32.8423910  77.4700260  58.8822540  32.2939370  77.7408830
  58.5300980  33.7079920  77.3306250  55.0305540  28.9097480  73.3441770
  54.1045320  29.1518620  73.3347180  55.4961970  29.7371740  73.2226520
  61.2562370  32.0154220  69.2925830  62.0490980  32.3043050  68.8407620
  60.7366720  31.5846390  68.6138310  70.3092540  31.2424350  70.7162570
  70.0234050  30.8289490  69.9016750  70.1112090  32.1712060  70.5963090
  61.7739770  27.2357630  69.1568180  61.6690410  26.6209980  69.8829560
  61.6063990  26.7123520  68.3731190  65.0142500  26.2977660  69.7610170
  64.4652600  26.7446960  70.4052910  65.6361760  25.7926910  70.2847840
  60.6817620  25.2568580  71.6575470  61.1034040  25.0908450  72.5006860
  60.8068460  24.4468810  71.1630610  63.1945260  24.2806190  68.9052570
  63.7150920  23.5655210  68.5393720  63.8413660  24.9192060  69.2053080
  59.5776520  21.3301810  68.6033630  59.3765580  20.4669170  68.9646970
  59.4068570  21.2435170  67.6655230  67.0564830  16.1410040  71.1320510
  67.3367120  15.2977940  71.4879930  66.2830560  16.3733150  71.6459260
  58.3759320  18.4302430  68.5911510  58.6785220  18.4369860  67.6830660
  59.1153910  18.0800290  69.0879170  61.5944250  17.3737050  69.5767710
  61.2466250  16.6961040  68.9970160  61.7957020  16.9126560  70.3911100
  63.7593290  32.3617800  71.1954310  64.6544080  32.7002770  71.2173070
  63.7910920  31.6397210  70.5678590  57.3989450  27.7344850  69.4241310
  57.8364320  28.2774520  70.0798890  57.8837180  26.9091800  69.4337650
  54.6135250  30.5233880  76.8761570  54.9438260  29.6554940  76.6440210
  55.0426250  30.7292400  77.7066530  59.2097170  28.8542890  74.5363540
  58.9092710  28.7307860  75.4367450  59.1034660  27.9951480  74.1279270
  71.9789090  28.6339290  69.2390220  71.1482050  28.7015940  69.7097450
  72.1560920  29.5243410  68.9357080  71.4345550  25.3786770  71.7424420
  72.1964460  25.9483420  71.8484110  71.4499920  24.8113970  72.5132730
  54.9349890  23.9024700  75.9732080  54.2798730  23.6336340  75.3291780
  55.7727840  23.7929180  75.5234060  72.4405520  26.2336870  76.5866350
  72.8114350  25.4504190  76.1802320  73.0807450  26.9225970  76.4083650
  71.4864720  25.6721140  68.8996940  71.7613560  26.5800020  68.7716160
  71.2975460  25.6083670  69.8358930  67.8840330  18.6965990  70.1950570
  68.3025210  18.5096970  69.3547230  67.5776390  17.8445040  70.5053500
  71.3830060  23.6090130  73.8926370  71.0073660  22.8418060  73.4607660
  70.6533180  23.9912830  74.3801300  54.1487970  21.1123630  71.9157410
  53.2452050  21.3753830  71.7409070  54.6328590  21.3834800  71.1357370
  70.6581020  21.8347620  77.1933610  71.1818500  21.3410270  76.5623780
  71.2440440  21.9697980  77.9381180  56.6915180  20.1689170  69.8251790
  57.4006880  19.7472390  69.3399070  55.9755120  20.2364400  69.1935140
  56.3389340  16.2228500  68.8654440  57.0617470  16.7637440  69.1835660
  56.6113860  15.9491920  67.9895980  70.1480990  21.0920970  73.1326020
  70.6440110  20.8591840  73.9174900  69.9497060  20.2532810  72.7163660
  71.5768150  19.7281920  75.6663700  71.4667430  19.5737960  76.6045970
  72.3375740  19.2002860  75.4239110  72.4658420  17.5589840  68.9069840
  73.3907730  17.4271020  68.6988130  72.4434210  17.6382660  69.8606290
  72.5396910  18.3300500  71.5326550  71.7448410  18.2645620  72.0619460
  72.7440190  19.2651140  71.5211900  69.4815330  32.3692050  75.5264940
  70.0774400  32.0476620  74.8499360  69.7393480  31.8963870  76.3178210
  68.9716840  16.6597380  77.9825380  69.4124930  16.6042480  77.1346980
  68.7024430  17.5755390  78.0535560  70.8355410  16.2912620  75.9934200
  70.7743810  15.3473840  75.8465220  71.6147440  16.3992710  76.5387660
  55.1408160  32.4304980  74.9558150  54.9730200  31.7975660  75.6540040
  54.2742670  32.6364380  74.6052340  55.7636180  16.2621760  72.4590010
  56.5215540  16.3750640  71.8854040  55.3013350  17.0990960  72.4133440
  62.3049990  18.3761030  75.4492320  61.4924500  18.0017920  75.1088200
  62.8091630  17.6206110  75.7513510  66.8074970  15.0403480  76.6875390
  67.4104340  15.6123690  77.1623910  66.0667960  15.6042920  76.4649290
  69.9509570  15.4425040  71.9615670  70.1460200  16.3408490  72.2283100
  69.1639440  15.2112120  72.4548620  56.7470860  31.1238210  72.4008290
  56.2218480  31.5046240  71.6970250  56.6715440  31.7488980  73.1218000
  58.1361330  16.7885810  70.9991980  58.6654090  16.0015610  70.8699930
  58.7689650  17.4677000  71.2327510  60.3299170  16.5260950  74.0537370
  59.7001910  15.8248260  74.2207500  59.7904310  17.2865080  73.8370530
  71.5036180  32.6825750  73.7222230  71.6788370  31.9963490  73.0783150
  70.8057750  33.2072800  73.3298900  59.3463830  33.0720590  71.2757540
  60.0782650  32.7879870  70.7281430  59.6057500  32.8333870  72.1656920
  58.5078620  29.1885320  71.2803870  57.8787500  29.6570420  71.8289700
  58.6226450  28.3434540  71.7150060  65.9628340  23.2390980  57.4305070
  65.8822390  22.3245590  57.1596780  65.5492760  23.7358050  56.7244780
  68.1153810  29.4230190  58.0913470  67.6535340  28.6517430  58.4200640
  68.9279360  29.4496260  58.5965920  56.5204160  20.2891700  53.9732490
  55.6320860  20.6307670  53.8712370  56.8045350  20.0892020  53.0813320
  55.7262040  18.2981710  61.6441120  55.5464880  17.4007460  61.9243880
  55.3242120  18.8453580  62.3188070  64.5660540  20.4997570  59.5453430
  64.9425360  19.6269450  59.4327100  64.4680050  20.8356270  58.6543870
  58.6965550  18.8723200  55.0070870  58.8032300  19.7726930  55.3139630
  57.7857910  18.8241170  54.7165520  68.3484660  17.9948010  56.4781770
  69.1694280  17.5044580  56.5207250  68.3818740  18.5845670  57.2313610
  56.3448710  20.7942210  60.2523460  57.0258820  21.0580580  60.8710860
  56.0296760  19.9543080  60.5861470  60.5373280  21.8409570  59.3396050
  61.0451500  22.3390540  59.9801070  61.0686520  21.0644770  59.1635410
  72.6384210  20.0114760  63.0425400  71.9336380  20.3996470  62.5240510
  72.9042130  20.7065050  63.6446330  58.8209380  16.4808130  63.6059470
  58.8227820  16.9980520  62.8005370  57.9913690  16.0038310  63.5829400
  65.2080470  26.5927440  55.1049370  64.5897740  27.0576890  54.5412090
  65.7203720  27.2854920  55.5218880  68.5846140  19.9348390  59.2509310
  67.8801710  20.2233280  59.8312420  68.9458300  20.7448500  58.8908870
  58.5024710  18.1918090  61.6129920  58.8441520  19.0360140  61.3183790
  57.5640520  18.3401830  61.7295260  70.2008920  29.5523520  61.5136790
  69.5172440  30.2222630  61.5053460  70.7403210  29.7504170  60.7481650
  71.6533060  19.3803180  59.6418520  70.7057970  19.4142160  59.7733950
  71.9783050  20.1942130  60.0267880  62.1852600  15.6800360  57.9374510
  62.4927580  15.1247250  57.2210010  61.2553300  15.8144820  57.7547500
  67.7367660  31.3967650  60.2281970  67.7494820  30.9929940  59.3604230
  67.1842880  32.1714940  60.1243400  69.0313080  28.1183870  55.3172140
  68.9209410  27.1758200  55.4421560  69.0281330  28.4799510  56.2034900
  67.1353100  26.2997490  61.5564580  67.5521890  26.0857600  60.7218040
  67.8592920  26.5570280  62.1273200  64.5733360  23.7449190  54.6734630
  63.6462640  23.6786570  54.9023100  64.7258180  24.6829320  54.5589870
  71.0815200  24.6984710  61.6480820  70.2533830  24.7677800  61.1730950
  71.6765680  25.2839020  61.1796650  68.6030650  25.3069490  55.1769880
  67.9843070  24.9689040  54.5296180  68.5855100  24.6629250  55.8849070
  68.0457210  21.4854030  62.5935690  67.6328390  22.3107740  62.8475680
  67.3133160  20.8999070  62.4012050  60.1790000  24.2713930  57.4554360
  59.7747000  23.5591180  56.9600260  60.2653120  23.9267170  58.3442400
  58.8918620  21.0457140  61.2353400  59.4433210  21.1552480  60.4606650
  59.4062130  21.4194740  61.9508630  68.7357310  31.5313360  63.2816670
  68.2587870  32.3385550  63.0889280  68.0519100  30.8791690  63.4342880
  59.7390130  27.6963180  66.2701370  58.8418660  27.9203150  66.5174770
  59.7643000  27.8198120  65.3212770  66.7795350  24.5456300  52.1842630
  67.2188630  23.7078730  52.0380450  67.4923770  25.1785700  52.2706770
  58.5661350  24.5676500  64.8458740  58.4269120  25.4399300  65.2146140
  57.6842710  24.2249310  64.7006680  60.3641700  30.5098200  67.0543890
  60.3357130  30.9141150  66.1872320  60.2006670  29.5808560  66.8915490
  70.3612490  15.7999110  50.4983670  70.0485150  15.8925940  51.3982740
  71.1224960  16.3780140  50.4481100  72.3156520  31.2925300  68.3508060
  72.7916240  31.7708190  69.0297140  72.9363680  31.2242790  67.6253560
  71.7189770  28.4838150  65.5108070  71.8452830  28.2450030  64.5925250
  71.7611150  27.6522690  65.9830150  65.5806510  32.1866150  64.0802880
  66.0951180  32.0974160  64.8825310  64.7375590  32.5325850  64.3730790
  71.5713780  20.5370610  66.4757810  70.9558050  21.0450280  65.9473270
  71.2510200  19.6368940  66.4183750  59.3458290  16.5093980  58.3384680
  58.9026440  17.2903520  58.0069200  59.9043280  16.8323870  59.0455620
  63.6328100  19.3762500  63.9420000  63.1707470  19.5845520  64.7539940
  63.2306210  18.5621850  63.6390670  68.6332610  20.5971450  65.0716660
  67.7826200  20.2977200  65.3925730  68.4734400  20.8413460  64.1600480
  65.7282320  22.0973200  67.1715450  66.0535730  21.2636950  66.8317680
  66.5162650  22.6201720  67.3193780  62.4617110  16.1304680  53.2190510
  61.8371290  16.1264550  53.9443820  62.3747230  15.2635640  52.8226480
  61.3834190  17.0541310  60.1974280  61.6806520  17.9604140  60.1166300
  61.9319750  16.5660090  59.5833850  59.1372510  21.6327550  56.0665930
  58.9113430  21.4164720  56.9712550  58.3565040  22.0656010  55.7211900
  66.3670270  21.6390920  54.6656580  65.7679160  22.3626720  54.4820200
  66.9149880  21.5767700  53.8833030  61.5771720  22.5313130  66.7326200
  61.4815320  21.5907860  66.5826600  62.4203700  22.7528200  66.3374270
  64.9735140  20.2754460  56.6959860  65.3664710  20.5926660  55.8828550
  65.3351990  19.3966340  56.8104380  56.7082260  18.9426800  64.8859980
  56.3145650  19.7902010  65.0932760  56.0200660  18.3053170  65.0768620
  63.2827310  19.0261770  67.9556720  62.5925630  18.8333970  68.5902810
  64.0259610  19.3096410  68.4881020  54.0099310  16.8655260  58.9190060
  53.7212360  17.4358120  59.6315040  54.7545070  16.3859710  59.2821290
  65.5590280  22.8660210  60.7910640  64.8271400  23.3747020  61.1400740
  65.1614620  22.0490190  60.4899420  61.9967670  19.5414410  59.1963130
  62.0003730  19.1004360  58.3467670  62.8918790  19.8631740  59.3034950
  57.8470050  19.4240900  58.1557340  57.5070100  19.9016130  58.9124390
  57.0847370  18.9706020  57.7958440  62.0587820  20.5426490  52.1869890
  62.1800640  20.5012970  53.1355710  61.6736330  21.4050640  52.0316620
  66.0216190  18.3193890  60.2033580  66.0388930  18.7702540  61.0475430
  65.7731770  17.4199530  60.4167020  61.0709320  22.8527630  51.5853190
  60.5026220  22.4045880  50.9589100  61.7798320  23.2120410  51.0518340
  69.4486940  15.7326070  66.0419960  69.7732710  15.0015730  66.5677940
  69.4843450  15.4139710  65.1400950  55.1616130  18.3459880  57.0722010
  54.8763050  17.9815550  57.9100630  55.0994990  17.6140340  56.4585150
  60.0875010  22.6424830  63.2612750  59.7832080  23.5216810  63.4863110
  61.0421470  22.7024620  63.2970190  69.3744780  25.8451180  59.6505990
  70.0943900  26.3406470  59.2602100  69.1726600  25.1669070  59.0059860
  64.8354720  17.2389140  53.7935380  64.0219330  16.7402310  53.7180690
  64.6416670  18.0787390  53.3771730  64.7563580  25.9160240  65.5374990
  64.6900890  24.9955910  65.2832580  64.1268720  26.0135680  66.2519630
  63.5463700  27.7832480  52.7685710  63.8879400  28.5274710  52.2729030
  62.7176410  28.0963600  53.1310540  56.1438740  23.4827570  64.4084110
  55.7853680  24.1481420  64.9957450  55.8493300  22.6511120  64.7796730
  59.3451860  23.9411810  67.2923660  59.0452000  24.0868990  66.3951480
  60.1163100  23.3817100  67.1997050  64.6880310  28.7380810  65.2878790
  64.7024850  27.8061770  65.0697700  63.9805410  28.8240570  65.9268560
  69.8217380  22.9220630  51.5577400  69.7381100  23.3534850  50.7073840
  70.5411570  23.3818980  51.9904220  70.8991520  25.3788150  64.6347370
  70.1739710  25.9716930  64.4376760  71.4266980  25.3711690  63.8360740
  70.8504630  29.7762890  54.2859530  70.2080790  29.1218510  54.5603250
  70.4635290  30.1817980  53.5100200  66.4291110  27.1048320  58.1331220
  66.7814930  26.5076450  57.4732590  65.5453440  26.7792550  58.3039470
  61.8181600  24.8692040  55.1526990  62.2744380  25.6797290  55.3787180
  61.4669810  24.5515180  55.9845480  57.7193380  15.2129690  55.6249510
  57.5908010  15.2047590  56.5734430  56.8955400  15.5512780  55.2740520
  67.1683910  29.1825630  64.3032800  67.5040150  29.7692320  64.9810720
  66.2484250  29.0518340  64.5330590  54.7187310  16.9720810  65.0856210
  54.0045830  17.1717730  65.6908820  55.1382350  16.1960380  65.4571010
  68.8218260  26.5851290  52.4850040  68.5339960  27.0463980  53.2727920
  69.6170430  26.1249060  52.7534260  62.9972490  29.2316960  67.4720860
  62.6769360  28.5126200  68.0166550  62.3230850  29.9072030  67.5456920
  66.2126090  19.4643120  62.8357660  66.5806910  18.6438330  63.1637230
  65.3524290  19.5245010  63.2513310  69.5788120  18.4200060  53.6445220
  68.9501280  18.5245730  52.9303450  69.0840040  18.6396840  54.4339100
  61.5472150  20.6986010  55.0603100  60.8388300  21.1672350  55.5016710
  61.8316630  20.0408020  55.6948290  63.1728080  22.1182710  63.0595630
  63.6713330  22.5928530  63.7247480  63.3151030  21.1946230  63.2665660
  65.5787580  17.4236670  56.4998890  65.4555360  17.4422800  55.5508400
  66.5272140  17.4715610  56.6197290  59.7507170  19.0071090  52.4353810
  60.5997700  19.4441240  52.3694000  59.3838440  19.3191350  53.2625870
  70.3794940  18.3350670  63.9024020  69.8768540  19.0756070  64.2417830
  71.1951600  18.7234670  63.5860810  68.6716950  23.5783850  57.3485380
  67.7307090  23.5934080  57.5233070  68.9861020  22.7919810  57.7945680
  70.6742530  30.7492700  59.0239640  70.7989950  31.5723870  59.4963450
  71.5408090  30.5383430  58.6763790  57.1518340  32.0269980  67.8842350
  57.9531070  32.3482030  68.2977750  56.6370160  31.6665560  68.6062260
  65.9882970  28.1349850  67.8317760  65.3821130  28.1581450  67.0913510
  65.6837080  27.4032890  68.3685010  67.4183340  31.8630140  66.4427170
  68.3705090  31.7788160  66.3927410  67.2711560  32.5271850  67.1160960
  54.8716150  24.5143440  66.8278400  55.3755170  23.9350720  67.3994630
  54.1323570  24.7983670  67.3654770  61.9254090  25.9214430  66.3613920
  61.1599760  26.4899430  66.2768590  62.1070050  25.6290640  65.4682150
  69.0677440  27.6519760  66.9188940  69.8086910  27.9895520  66.4156400
  68.3050120  27.8211820  66.3658710  56.9039230  22.6573030  67.7228470
  56.9444570  22.3586900  68.6313700  57.7584730  23.0580640  67.5635990
  60.6817620  25.2568580  52.8831980  61.1034040  25.0908450  53.7263370
  60.8068460  24.4468810  52.3887120  58.8445040  21.2365130  65.6902960
  58.3141500  20.7456080  65.0626300  59.5133110  21.6649330  65.1560890
  67.7423100  25.7034590  65.4544150  68.1564120  25.8579670  66.3034570
  66.8074100  25.8289810  65.6169930  68.2145270  23.0430750  67.4583300
  68.7966040  22.2883070  67.3703780  68.3907040  23.5738190  66.6814780
  59.3317340  18.2027500  65.7700250  59.2374210  17.5848250  65.0451120
  58.7514730  18.9293790  65.5430160  62.0978780  16.7600740  62.8027640
  61.6496080  16.7825000  61.9573190  61.4643980  16.3619760  63.3997940
  64.8402230  23.3871250  64.8077920  64.9598440  22.7912390  65.5472760
  65.6996230  23.4240940  64.3879220  67.1790130  23.9408440  63.3840430
  66.6525350  24.4651060  62.7805570  67.5221470  24.5735830  64.0150160
  61.6071000  19.9292600  66.0653740  62.1970690  19.6208450  66.7531560
  60.7891240  19.4572350  66.2213640  66.4264430  19.5458410  66.2986760
  65.7379950  18.8839950  66.2336750  67.1470450  19.0996680  66.7435220
  67.0564830  16.1410040  52.3577020  67.3367120  15.2977940  52.7136440
  66.2830560  16.3733150  52.8715770  63.2107960  33.1959290  64.7984460
  63.1366660  34.0994430  65.1056830  62.3086800  32.8771190  64.7706530
  61.5944250  17.3737050  50.8024220  61.2466250  16.6961040  50.2226670
  61.7957020  16.9126560  51.6167610  70.7387640  30.8921470  65.1277020
  70.1389630  30.9514030  64.3840940  70.8681540  29.9526450  65.2573870
  71.9789090  28.6339290  50.4646730  71.1482050  28.7015940  50.9353960
  72.1560920  29.5243410  50.1613590  71.4345550  25.3786770  52.9680930
  72.1964460  25.9483420  53.0740620  71.4499920  24.8113970  53.7389240
  72.4405520  26.2336870  57.8122860  72.8114350  25.4504190  57.4058830
  73.0807450  26.9225970  57.6340160  69.4239280  27.6173450  63.2253180
  68.6099120  28.0470610  63.4878970  69.8313480  28.2291860  62.6122230
  71.4864720  25.6721140  50.1253450  71.7613560  26.5800020  49.9972670
  71.2975460  25.6083670  51.0615440  71.3830060  23.6090130  55.1182880
  71.0073660  22.8418060  54.6864170  70.6533180  23.9912830  55.6057810
  55.9725820  24.2877270  61.7391930  56.3398860  24.2004670  62.6187950
  55.4036640  23.5243820  61.6398790  70.7729680  22.7561650  64.7522400
  70.5415770  22.5274400  63.8520350  71.0334230  23.6761200  64.7067290
  55.5241820  21.1986360  65.6450350  54.6297870  21.1653120  65.9844060
  56.0639370  21.3973150  66.4101600  69.2117750  17.9818080  67.5302100
  70.0887930  17.9901480  67.9136100  69.2238590  17.2448920  66.9194450
  70.6581020  21.8347620  58.4190120  71.1818500  21.3410270  57.7880290
  71.2440440  21.9697980  59.1637690  70.8370740  21.9187490  61.9409670
  69.8873450  21.8851030  62.0554660  71.0183750  22.8287600  61.7059440
  56.3389340  16.2228500  50.0910950  57.0617470  16.7637440  50.4092170
  56.6113860  15.9491920  49.2152490  70.1480990  21.0920970  54.3582530
  70.6440110  20.8591840  55.1431410  69.9497060  20.2532810  53.9420170
  56.0281530  15.4734690  59.9933570  56.6757720  14.9232070  59.5528730
  56.4483370  15.7277840  60.8149380  71.5768150  19.7281920  56.8920210
  71.4667430  19.5737960  57.8302480  72.3375740  19.2002860  56.6495620
  69.9233870  15.6676050  63.3503210  70.5606090  16.2810190  63.7162400
  70.0708760  15.7036710  62.4052440  72.4658420  17.5589840  50.1326350
  73.3907730  17.4271020  49.9244640  72.4434210  17.6382660  51.0862800
  72.5396910  18.3300500  52.7583060  71.7448410  18.2645620  53.2875970
  72.7440190  19.2651140  52.7468410  55.7813530  15.6290360  62.7358890
  55.4328350  16.0854180  63.5017070  55.4501230  14.7347490  62.8181320
  57.3877900  28.8009960  66.9012080  57.3447530  28.4302870  67.7826540
  57.5188910  29.7387530  67.0413900  63.2938350  16.8202240  66.2578310
  63.2327240  17.4124070  67.0073720  64.2338730  16.7128200  66.1128570
  65.9312910  16.4772300  65.8970600  66.5453320  16.7951590  65.2351680
  66.4762470  15.9920890  66.5166460  72.3488090  32.3763930  63.3032440
  71.8546370  32.7732800  62.5859570  71.7401380  31.7513140  63.6969720
  56.4534170  15.1566560  66.0109660  57.0017160  14.9754610  65.2475770
  56.5189480  14.3660670  66.5465970  66.6720950  15.0404440  62.2239890
  65.7980790  15.3739550  62.0212820  66.5631700  14.5677620  63.0491760
  67.5792930  17.2475310  63.6081610  67.2506290  16.4327070  63.2283340
  68.5275230  17.2045120  63.4847300  70.0327540  33.0187350  60.5819180
  69.5730510  33.7703160  60.2077200  69.4040000  32.2993820  60.5233980
  64.4195770  15.9574280  61.1632800  63.6367560  16.4319780  61.4429560
  64.1258700  15.0529110  61.0545980  68.9716840  16.6597380  59.2081890
  69.4124930  16.6042480  58.3603490  68.7024430  17.5755390  59.2792070
  70.8355410  16.2912620  57.2190710  70.7743810  15.3473840  57.0721730
  71.6147440  16.3992710  57.7644170  55.7636180  16.2621760  53.6846520
  56.5215540  16.3750640  53.1110550  55.3013350  17.0990960  53.6389950
  62.3049990  18.3761030  56.6748830  61.4924500  18.0017920  56.3344710
  62.8091630  17.6206110  56.9770020  66.8074970  15.0403480  57.9131900
  67.4104340  15.6123690  58.3880420  66.0667960  15.6042920  57.6905800
  69.9509570  15.4425040  53.1872180  70.1460200  16.3408490  53.4539610
  69.1639440  15.2112120  53.6805130  58.1361330  16.7885810  52.2248490
  58.6654090  16.0015610  52.0956440  58.7689650  17.4677000  52.4584020
  60.3299170  16.5260950  55.2793880  59.7001910  15.8248260  55.4464010
  59.7904310  17.2865080  55.0627040  63.2691120  33.1400180  67.9504490
  64.1958430  32.9044450  67.9940450  63.2541550  33.9672180  67.4690520
  71.5036180  32.6825750  54.9478740  71.6788370  31.9963490  54.3039660
  70.8057750  33.2072800  54.5555410  60.4554730  15.8044930  67.7146370
  60.1739000  16.3078530  66.9507190  60.8374430  15.0066680  67.3488500
  67.0570190  15.2198510  68.2926840  66.9435640  15.5393120  69.1878360
  67.8739930  15.6211020  67.9964120  69.8368680  32.3670040  67.7745530
  70.6294000  31.8719270  67.5671490  70.1301830  33.0460180  68.3821140
  65.9628340  23.2390980  38.6561580  65.8822390  22.3245590  38.3853290
  65.5492760  23.7358050  37.9501290  72.6384210  20.0114760  44.2681910
  71.9336380  20.3996470  43.7497020  72.9042130  20.7065050  44.8702840
  65.2080470  26.5927440  36.3305880  64.5897740  27.0576890  35.7668600
  65.7203720  27.2854920  36.7475390  68.5846140  19.9348390  40.4765820
  67.8801710  20.2233280  41.0568930  68.9458300  20.7448500  40.1165380
  70.2008920  29.5523520  42.7393300  69.5172440  30.2222630  42.7309970
  70.7403210  29.7504170  41.9738160  71.6533060  19.3803180  40.8675030
  70.7057970  19.4142160  40.9990460  71.9783050  20.1942130  41.2524390
  62.1852600  15.6800360  39.1631020  62.4927580  15.1247250  38.4466520
  61.2553300  15.8144820  38.9804010  69.0313080  28.1183870  36.5428650
  68.9209410  27.1758200  36.6678070  69.0281330  28.4799510  37.4291410
  71.0815200  24.6984710  42.8737330  70.2533830  24.7677800  42.3987460
  71.6765680  25.2839020  42.4053160  68.6030650  25.3069490  36.4026390
  67.9843070  24.9689040  35.7552690  68.5855100  24.6629250  37.1105580
  68.7357310  31.5313360  44.5073180  68.2587870  32.3385550  44.3145790
  68.0519100  30.8791690  44.6599390  66.7795350  24.5456300  33.4099140
  67.2188630  23.7078730  33.2636960  67.4923770  25.1785700  33.4963280
  70.3612490  15.7999110  31.7240180  70.0485150  15.8925940  32.6239250
  71.1224960  16.3780140  31.6737610  72.3156520  31.2925300  49.5764570
  72.7916240  31.7708190  50.2553650  72.9363680  31.2242790  48.8510070
  71.7189770  28.4838150  46.7364580  71.8452830  28.2450030  45.8181760
  71.7611150  27.6522690  47.2086660  67.5560910  32.4721490  34.7343390
  67.3962050  32.1824430  35.6325220  67.3907620  31.6961620  34.1988620
  67.2587040  29.9809050  33.2941390  66.5652200  29.9786340  32.6343670
  68.0009900  29.5568370  32.8635560  66.8236970  31.6071760  37.3689880
  67.2793920  30.8261140  37.6828500  67.1629490  32.3178580  37.9131060
  71.5713780  20.5370610  47.7014320  70.9558050  21.0450280  47.1729780
  71.2510200  19.6368940  47.6440260  59.3458290  16.5093980  39.5641190
  58.9026440  17.2903520  39.2325710  59.9043280  16.8323870  40.2712130
  69.4486940  15.7326070  47.2676470  69.7732710  15.0015730  47.7934450
  69.4843450  15.4139710  46.3657460  69.3744780  25.8451180  40.8762500
  70.0943900  26.3406470  40.4858610  69.1726600  25.1669070  40.2316370
  69.8217380  22.9220630  32.7833910  69.7381100  23.3534850  31.9330350
  70.5411570  23.3818980  33.2160730  70.8991520  25.3788150  45.8603880
  70.1739710  25.9716930  45.6633270  71.4266980  25.3711690  45.0617250
  70.8504630  29.7762890  35.5116040  70.2080790  29.1218510  35.7859760
  70.4635290  30.1817980  34.7356710  57.7193380  15.2129690  36.8506020
  57.5908010  15.2047590  37.7990940  56.8955400  15.5512780  36.4997030
  69.2402010  28.6679350  32.0492390  69.0139590  27.9509790  32.6417030
  68.8498210  28.4191790  31.2114140  68.8218260  26.5851290  33.7106550
  68.5339960  27.0463980  34.4984430  69.6170430  26.1249060  33.9790770
  69.5788120  18.4200060  34.8701730  68.9501280  18.5245730  34.1559960
  69.0840040  18.6396840  35.6595610  64.0246260  30.1405650  32.3035710
  64.1258240  29.9369640  31.3737690  63.1248000  29.8863930  32.5083490
  65.5787580  17.4236670  37.7255400  65.4555360  17.4422800  36.7764910
  66.5272140  17.4715610  37.8453800  70.3794940  18.3350670  45.1280530
  69.8768540  19.0756070  45.4674340  71.1951600  18.7234670  44.8117320
  68.6716950  23.5783850  38.5741890  67.7307090  23.5934080  38.7489580
  68.9861020  22.7919810  39.0202190  70.6742530  30.7492700  40.2496150
  70.7989950  31.5723870  40.7219960  71.5408090  30.5383430  39.9020300
  61.2562370  32.0154220  31.7438850  62.0490980  32.3043050  31.2920640
  60.7366720  31.5846390  31.0651330  70.3092540  31.2424350  33.1675590
  70.0234050  30.8289490  32.3529770  70.1112090  32.1712060  33.0476110
  65.0142500  26.2977660  32.2123190  64.4652600  26.7446960  32.8565930
  65.6361760  25.7926910  32.7360860  67.0564830  16.1410040  33.5833530
  67.3367120  15.2977940  33.9392950  66.2830560  16.3733150  34.0972280
  58.3759320  18.4302430  31.0424530  58.6785220  18.4369860  30.1343680
  59.1153910  18.0800290  31.5392190  63.7593290  32.3617800  33.6467330
  64.6544080  32.7002770  33.6686090  63.7910920  31.6397210  33.0191610
  70.7387640  30.8921470  46.3533530  70.1389630  30.9514030  45.6097450
  70.8681540  29.9526450  46.4830380  71.9789090  28.6339290  31.6903240
  71.1482050  28.7015940  32.1610470  72.1560920  29.5243410  31.3870100
  71.4345550  25.3786770  34.1937440  72.1964460  25.9483420  34.2997130
  71.4499920  24.8113970  34.9645750  72.4405520  26.2336870  39.0379370
  72.8114350  25.4504190  38.6315340  73.0807450  26.9225970  38.8596670
  71.4864720  25.6721140  31.3509960  71.7613560  26.5800020  31.2229180
  71.2975460  25.6083670  32.2871950  71.3830060  23.6090130  36.3439390
  71.0073660  22.8418060  35.9120680  70.6533180  23.9912830  36.8314320
  70.7729680  22.7561650  45.9778910  70.5415770  22.5274400  45.0776860
  71.0334230  23.6761200  45.9323800  69.2117750  17.9818080  48.7558610
  70.0887930  17.9901480  49.1392610  69.2238590  17.2448920  48.1450960
  70.6581020  21.8347620  39.6446630  71.1818500  21.3410270  39.0136800
  71.2440440  21.9697980  40.3894200  70.8370740  21.9187490  43.1666180
  69.8873450  21.8851030  43.2811170  71.0183750  22.8287600  42.9315950
  56.3389340  16.2228500  31.3167460  57.0617470  16.7637440  31.6348680
  56.6113860  15.9491920  30.4409000  70.1480990  21.0920970  35.5839040
  70.6440110  20.8591840  36.3687920  69.9497060  20.2532810  35.1676680
  71.5768150  19.7281920  38.1176720  71.4667430  19.5737960  39.0558990
  72.3375740  19.2002860  37.8752130  69.9233870  15.6676050  44.5759720
  70.5606090  16.2810190  44.9418910  70.0708760  15.7036710  43.6308950
  72.4658420  17.5589840  31.3582860  73.3907730  17.4271020  31.1501150
  72.4434210  17.6382660  32.3119310  72.5396910  18.3300500  33.9839570
  71.7448410  18.2645620  34.5132480  72.7440190  19.2651140  33.9724920
  69.4815330  32.3692050  37.9777960  70.0774400  32.0476620  37.3012380
  69.7393480  31.8963870  38.7691230  72.3488090  32.3763930  44.5288950
  71.8546370  32.7732800  43.8116080  71.7401380  31.7513140  44.9226230
  70.0327540  33.0187350  41.8075690  69.5730510  33.7703160  41.4333710
  69.4040000  32.2993820  41.7490490  68.9716840  16.6597380  40.4338400
  69.4124930  16.6042480  39.5860000  68.7024430  17.5755390  40.5048580
  70.8355410  16.2912620  38.4447220  70.7743810  15.3473840  38.2978240
  71.6147440  16.3992710  38.9900680  55.7636180  16.2621760  34.9103030
  56.5215540  16.3750640  34.3367060  55.3013350  17.0990960  34.8646460
  66.8074970  15.0403480  39.1388410  67.4104340  15.6123690  39.6136930
  66.0667960  15.6042920  38.9162310  69.9509570  15.4425040  34.4128690
  70.1460200  16.3408490  34.6796120  69.1639440  15.2112120  34.9061640
  58.1361330  16.7885810  33.4505000  58.6654090  16.0015610  33.3212950
  58.7689650  17.4677000  33.6840530  60.3299170  16.5260950  36.5050390
  59.7001910  15.8248260  36.6720520  59.7904310  17.2865080  36.2883550
  71.5036180  32.6825750  36.1735250  71.6788370  31.9963490  35.5296170
  70.8057750  33.2072800  35.7811920  60.4554730  15.8044930  48.9402880
  60.1739000  16.3078530  48.1763700  60.8374430  15.0066680  48.5745010
  67.0570190  15.2198510  49.5183350  66.9435640  15.5393120  50.4134870
  67.8739930  15.6211020  49.2220630  65.9628340  23.2390980  19.8818090
  65.8822390  22.3245590  19.6109800  65.5492760  23.7358050  19.1757800
  64.0946380  25.0170000  21.7627360  63.3188480  24.5370440  22.0525930
  64.7459310  24.3375650  21.5883520  58.1112210  25.3289810  22.6403120
  57.2797090  25.0738520  23.0399630  58.7193190  25.4000580  23.3761040
  68.1153810  29.4230190  20.5426490  67.6535340  28.6517430  20.8713660
  68.9279360  29.4496260  21.0478940  58.0913470  29.3629900  22.8361140
  58.3941510  28.4727640  22.6571360  58.8357060  29.9200120  22.6083390
  56.5204160  20.2891700  16.4245510  55.6320860  20.6307670  16.3225390
  56.8045350  20.0892020  15.5326340  54.4837170  22.8897350  22.3085210
  55.0553280  22.1219550  22.3088850  54.4838710  23.1886110  21.3991820
  64.3417120  31.7088200  20.1630480  63.7228560  32.1645700  19.5924920
  65.1968900  31.8639660  19.7620180  63.5355370  27.6927190  21.7697520
  63.4663650  26.7517130  21.6086650  64.2975230  27.7828600  22.3420090
  55.7262040  18.2981710  24.0954140  55.5464880  17.4007460  24.3756900
  55.3242120  18.8453580  24.7701090  64.5660540  20.4997570  21.9966450
  64.9425360  19.6269450  21.8840120  64.4680050  20.8356270  21.1056890
  58.6965550  18.8723200  17.4583890  58.8032300  19.7726930  17.7652650
  57.7857910  18.8241170  17.1678540  68.3484660  17.9948010  18.9294790
  69.1694280  17.5044580  18.9720270  68.3818740  18.5845670  19.6826630
  56.3448710  20.7942210  22.7036480  57.0258820  21.0580580  23.3223880
  56.0296760  19.9543080  23.0374490  60.5373280  21.8409570  21.7909070
  61.0451500  22.3390540  22.4314090  61.0686520  21.0644770  21.6148430
  72.6384210  20.0114760  25.4938420  71.9336380  20.3996470  24.9753530
  72.9042130  20.7065050  26.0959350  58.8209380  16.4808130  26.0572490
  58.8227820  16.9980520  25.2518390  57.9913690  16.0038310  26.0342420
  65.2080470  26.5927440  17.5562390  64.5897740  27.0576890  16.9925110
  65.7203720  27.2854920  17.9731900  60.0712230  26.1203310  24.2345990
  59.7381610  26.7472230  24.8767060  60.2478910  26.6465190  23.4547660
  68.5846140  19.9348390  21.7022330  67.8801710  20.2233280  22.2825440
  68.9458300  20.7448500  21.3421890  58.5024710  18.1918090  24.0642940
  58.8441520  19.0360140  23.7696810  57.5640520  18.3401830  24.1808280
  59.2831330  28.0884110  26.0495170  59.9005330  28.7635190  25.7679620
  58.4224450  28.4972090  25.9582670  54.5763670  27.2783970  14.9302020
  54.1991650  27.7671070  14.1986920  54.8336740  27.9509250  15.5608550
  70.2008920  29.5523520  23.9649810  69.5172440  30.2222630  23.9566480
  70.7403210  29.7504170  23.1994670  71.6533060  19.3803180  22.0931540
  70.7057970  19.4142160  22.2246970  71.9783050  20.1942130  22.4780900
  62.1852600  15.6800360  20.3887530  62.4927580  15.1247250  19.6723030
  61.2553300  15.8144820  20.2060520  67.7367660  31.3967650  22.6794990
  67.7494820  30.9929940  21.8117250  67.1842880  32.1714940  22.5756420
  69.0313080  28.1183870  17.7685160  68.9209410  27.1758200  17.8934580
  69.0281330  28.4799510  18.6547920  67.1353100  26.2997490  24.0077600
  67.5521890  26.0857600  23.1731060  67.8592920  26.5570280  24.5786220
  64.5733360  23.7449190  17.1247650  63.6462640  23.6786570  17.3536120
  64.7258180  24.6829320  17.0102890  64.5602440  20.0166190  14.1214810
  63.6206110  20.1780150  14.2067270  64.8785700  20.7351870  13.5750800
  71.0815200  24.6984710  24.0993840  70.2533830  24.7677800  23.6243970
  71.6765680  25.2839020  23.6309670  68.6030650  25.3069490  17.6282900
  67.9843070  24.9689040  16.9809200  68.5855100  24.6629250  18.3362090
  68.0457210  21.4854030  25.0448710  67.6328390  22.3107740  25.2988700
  67.3133160  20.8999070  24.8525070  60.1790000  24.2713930  19.9067380
  59.7747000  23.5591180  19.4113280  60.2653120  23.9267170  20.7955420
  60.6471700  27.9581490  22.0706590  60.3499990  27.3526960  21.3914370
  61.5971520  27.9958800  21.9595950  58.8918620  21.0457140  23.6866420
  59.4433210  21.1552480  22.9119670  59.4062130  21.4194740  24.4021650
  68.7357310  31.5313360  25.7329690  68.2587870  32.3385550  25.5402300
  68.0519100  30.8791690  25.8855900  66.7795350  24.5456300  14.6355650
  67.2188630  23.7078730  14.4893470  67.4923770  25.1785700  14.7219790
  64.8890730  29.4852370  18.6036890  65.3286640  30.2276700  18.1892280
  64.8277620  29.7278940  19.5275850  60.3641700  30.5098200  29.5056910
  60.3357130  30.9141150  28.6385340  60.2006670  29.5808560  29.3428510
  70.3612490  15.7999110  12.9496690  70.0485150  15.8925940  13.8495760
  71.1224960  16.3780140  12.8994120  56.8794630  23.1658910  17.4074030
  56.7592230  23.8921000  16.7955300  56.5695520  22.3961820  16.9301940
  72.3156520  31.2925300  30.8021080  72.7916240  31.7708190  31.4810160
  72.9363680  31.2242790  30.0766580  54.5180000  26.3374050  23.2142670
  54.5960420  26.4722820  22.2698390  55.1321680  25.6289940  23.4070790
  55.7627630  28.0374240  19.6248850  55.3555710  28.1788830  18.7702450
  56.6540640  27.7534400  19.4220060  71.7189770  28.4838150  27.9621090
  71.8452830  28.2450030  27.0438270  71.7611150  27.6522690  28.4343170
  65.5806510  32.1866150  26.5315900  66.0951180  32.0974160  27.3338330
  64.7375590  32.5325850  26.8243810  67.5560910  32.4721490  15.9599900
  67.3962050  32.1824430  16.8581730  67.3907620  31.6961620  15.4245130
  60.0349290  32.2520020  17.7371520  59.8591770  31.3355560  17.5239320
  59.1805030  32.6107310  17.9769320  67.2587040  29.9809050  14.5197900
  66.5652200  29.9786340  13.8600180  68.0009900  29.5568370  14.0892070
  66.8236970  31.6071760  18.5946390  67.2793920  30.8261140  18.9085010
  67.1629490  32.3178580  19.1387570  71.5713780  20.5370610  28.9270830
  70.9558050  21.0450280  28.3986290  71.2510200  19.6368940  28.8696770
  59.3458290  16.5093980  20.7897700  58.9026440  17.2903520  20.4582220
  59.9043280  16.8323870  21.4968640  63.6328100  19.3762500  26.3933020
  63.1707470  19.5845520  27.2052960  63.2306210  18.5621850  26.0903690
  68.6332610  20.5971450  27.5229680  67.7826200  20.2977200  27.8438750
  68.4734400  20.8413460  26.6113500  65.7282320  22.0973200  29.6228470
  66.0535730  21.2636950  29.2830700  66.5162650  22.6201720  29.7706800
  62.4617110  16.1304680  15.6703530  61.8371290  16.1264550  16.3956840
  62.3747230  15.2635640  15.2739500  61.3834190  17.0541310  22.6487300
  61.6806520  17.9604140  22.5679320  61.9319750  16.5660090  22.0346870
  59.1372510  21.6327550  18.5178950  58.9113430  21.4164720  19.4225570
  58.3565040  22.0656010  18.1724920  66.3670270  21.6390920  17.1169600
  65.7679160  22.3626720  16.9333220  66.9149880  21.5767700  16.3346050
  64.9735140  20.2754460  19.1472880  65.3664710  20.5926660  18.3341570
  65.3351990  19.3966340  19.2617400  56.7082260  18.9426800  27.3373000
  56.3145650  19.7902010  27.5445780  56.0200660  18.3053170  27.5281640
  54.0099310  16.8655260  21.3703080  53.7212360  17.4358120  22.0828060
  54.7545070  16.3859710  21.7334310  54.1969540  20.8075380  12.5805800
  54.1144210  21.7506140  12.7220790  53.8452600  20.6650290  11.7018150
  65.5590280  22.8660210  23.2423660  64.8271400  23.3747020  23.5913760
  65.1614620  22.0490190  22.9412440  61.9967670  19.5414410  21.6476150
  62.0003730  19.1004360  20.7980690  62.8918790  19.8631740  21.7547970
  57.8470050  19.4240900  20.6070360  57.5070100  19.9016130  21.3637410
  57.0847370  18.9706020  20.2471460  62.0587820  20.5426490  14.6382910
  62.1800640  20.5012970  15.5868730  61.6736330  21.4050640  14.4829640
  66.0216190  18.3193890  22.6546600  66.0388930  18.7702540  23.4988450
  65.7731770  17.4199530  22.8680040  61.0709320  22.8527630  14.0366210
  60.5026220  22.4045880  13.4102120  61.7798320  23.2120410  13.5031360
  69.4486940  15.7326070  28.4932980  69.7732710  15.0015730  29.0190960
  69.4843450  15.4139710  27.5913970  62.2975640  23.6016190  23.3941560
  62.6645770  23.1274760  24.1402900  62.1080700  24.4757760  23.7349900
  55.1616130  18.3459880  19.5235030  54.8763050  17.9815550  20.3613650
  55.0994990  17.6140340  18.9098170  60.0875010  22.6424830  25.7125770
  59.7832080  23.5216810  25.9376130  61.0421470  22.7024620  25.7483210
  58.6156800  26.8485820  16.3092620  57.8419060  26.3083440  16.1491340
  59.3451430  26.3292430  15.9710380  69.3744780  25.8451180  22.1019010
  70.0943900  26.3406470  21.7115120  69.1726600  25.1669070  21.4572880
  64.8354720  17.2389140  16.2448400  64.0219330  16.7402310  16.1693710
  64.6416670  18.0787390  15.8284750  64.7563580  25.9160240  27.9888010
  64.6900890  24.9955910  27.7345600  64.1268720  26.0135680  28.7032650
  67.5503110  21.6108790  14.5410560  68.4382730  21.9226020  14.3661900
  67.5208200  20.7381040  14.1491140  58.6594200  26.5166200  19.9471430
  59.1772870  25.7134460  19.8928320  58.2078220  26.4545340  20.7888260
  63.5463700  27.7832480  15.2198730  63.8879400  28.5274710  14.7242050
  62.7176410  28.0963600  15.5823560  64.6880310  28.7380810  27.7391810
  64.7024850  27.8061770  27.5210720  63.9805410  28.8240570  28.3781580
  69.8217380  22.9220630  14.0090420  69.7381100  23.3534850  13.1586860
  70.5411570  23.3818980  14.4417240  70.8991520  25.3788150  27.0860390
  70.1739710  25.9716930  26.8889780  71.4266980  25.3711690  26.2873760
  70.8504630  29.7762890  16.7372550  70.2080790  29.1218510  17.0116270
  70.4635290  30.1817980  15.9613220  66.4291110  27.1048320  20.5844240
  66.7814930  26.5076450  19.9245610  65.5453440  26.7792550  20.7552490
  62.5154390  27.8646010  17.9914650  63.2025520  28.4115220  18.3722240
  61.7286810  28.4086740  18.0264260  54.6546790  23.4818830  13.4831730
  55.5241640  23.7643630  13.7667650  54.1637110  24.2954700  13.3680540
  61.8181600  24.8692040  17.6040010  62.2744380  25.6797290  17.8300200
  61.4669810  24.5515180  18.4358500  64.1214210  30.3798380  24.8332310
  64.7656430  30.5857760  25.5105730  64.4843650  29.6186780  24.3803160
  57.7193380  15.2129690  18.0762530  57.5908010  15.2047590  19.0247450
  56.8955400  15.5512780  17.7253540  65.3946290  28.3830730  23.5509760
  66.0368520  27.6823890  23.6641930  65.9195640  29.1629170  23.3706650
  69.2402010  28.6679350  13.2748900  69.0139590  27.9509790  13.8673540
  68.8498210  28.4191790  12.4370650  67.1683910  29.1825630  26.7545820
  67.5040150  29.7692320  27.4323740  66.2484250  29.0518340  26.9843610
  55.0218040  32.6946210  14.0493360  55.3815680  33.2935550  13.3950630
  54.8810380  33.2406100  14.8228390  54.7187310  16.9720810  27.5369230
  54.0045830  17.1717730  28.1421840  55.1382350  16.1960380  27.9084030
  68.8218260  26.5851290  14.9363060  68.5339960  27.0463980  15.7240940
  69.6170430  26.1249060  15.2047280  62.9972490  29.2316960  29.9233880
  62.6769360  28.5126200  30.4679570  62.3230850  29.9072030  29.9969940
  61.0386660  30.0777410  14.8667030  61.0296760  30.8107100  14.2511540
  60.1185020  29.8308990  14.9593990  56.6393300  25.2992300  15.6113790
  56.0321250  26.0391200  15.6209090  57.1142650  25.3891660  14.7851990
  66.2126090  19.4643120  25.2870680  66.5806910  18.6438330  25.6150250
  65.3524290  19.5245010  25.7026330  69.5788120  18.4200060  16.0958240
  68.9501280  18.5245730  15.3816470  69.0840040  18.6396840  16.8852120
  64.0246260  30.1405650  13.5292220  64.1258240  29.9369640  12.5994200
  63.1248000  29.8863930  13.7340000  61.5472150  20.6986010  17.5116120
  60.8388300  21.1672350  17.9529730  61.8316630  20.0408020  18.1461310
  63.1728080  22.1182710  25.5108650  63.6713330  22.5928530  26.1760500
  63.3151030  21.1946230  25.7178680  65.5787580  17.4236670  18.9511910
  65.4555360  17.4422800  18.0021420  66.5272140  17.4715610  19.0710310
  62.6664370  32.6591970  18.2239890  62.9205870  32.6213360  17.3019260
  61.7176850  32.5325300  18.2168140  59.7507170  19.0071090  14.8866830
  60.5997700  19.4441240  14.8207020  59.3838440  19.3191350  15.7138890
  70.3794940  18.3350670  26.3537040  69.8768540  19.0756070  26.6930850
  71.1951600  18.7234670  26.0373830  68.6716950  23.5783850  19.7998400
  67.7307090  23.5934080  19.9746090  68.9861020  22.7919810  20.2458700
  58.6498590  25.2603450  13.3602360  59.4161860  25.1484810  13.9227790
  58.7273280  24.5641420  12.7079130  57.3445350  22.6928520  14.0435250
  57.4248940  21.7456030  14.1552650  58.2365100  23.0235400  14.1495910
  70.6742530  30.7492700  21.4752660  70.7989950  31.5723870  21.9476470
  71.5408090  30.5383430  21.1276810  58.1460060  32.8423910  21.1469790
  58.8822540  32.2939370  21.4178360  58.5300980  33.7079920  21.0075780
  55.0305540  28.9097480  17.0211300  54.1045320  29.1518620  17.0116710
  55.4961970  29.7371740  16.8996050  61.2562370  32.0154220  12.9695360
  62.0490980  32.3043050  12.5177150  60.7366720  31.5846390  12.2907840
  65.9882970  28.1349850  30.2830780  65.3821130  28.1581450  29.5426530
  65.6837080  27.4032890  30.8198030  67.4183340  31.8630140  28.8940190
  68.3705090  31.7788160  28.8440430  67.2711560  32.5271850  29.5673980
  70.3092540  31.2424350  14.3932100  70.0234050  30.8289490  13.5786280
  70.1112090  32.1712060  14.2732620  61.7739770  27.2357630  12.8337710
  61.6690410  26.6209980  13.5599090  61.6063990  26.7123520  12.0500720
  65.0142500  26.2977660  13.4379700  64.4652600  26.7446960  14.0822440
  65.6361760  25.7926910  13.9617370  69.0677440  27.6519760  29.3701960
  69.8086910  27.9895520  28.8669420  68.3050120  27.8211820  28.8171730
  60.6817620  25.2568580  15.3345000  61.1034040  25.0908450  16.1776390
  60.8068460  24.4468810  14.8400140  58.8445040  21.2365130  28.1415980
  58.3141500  20.7456080  27.5139320  59.5133110  21.6649330  27.6073910
  63.1945260  24.2806190  12.5822100  63.7150920  23.5655210  12.2163250
  63.8413660  24.9192060  12.8822610  67.7423100  25.7034590  27.9057170
  68.1564120  25.8579670  28.7547590  66.8074100  25.8289810  28.0682950
  68.2145270  23.0430750  29.9096320  68.7966040  22.2883070  29.8216800
  68.3907040  23.5738190  29.1327800  59.3317340  18.2027500  28.2213270
  59.2374210  17.5848250  27.4964140  58.7514730  18.9293790  27.9943180
  62.0978780  16.7600740  25.2540660  61.6496080  16.7825000  24.4086210
  61.4643980  16.3619760  25.8510960  62.5038330  25.6555070  25.8753100
  62.9226440  26.4987800  25.7029340  61.5846960  25.7927110  25.6459880
  64.8402230  23.3871250  27.2590940  64.9598440  22.7912390  27.9985780
  65.6996230  23.4240940  26.8392240  67.1790130  23.9408440  25.8353450
  66.6525350  24.4651060  25.2318590  67.5221470  24.5735830  26.4663180
  59.5776520  21.3301810  12.2803160  59.3765580  20.4669170  12.6416500
  59.4068570  21.2435170  11.3424760  60.3545750  31.9608080  26.9910830
  59.8166840  32.6854140  26.6719530  60.6079710  31.4838420  26.2008170
  61.6071000  19.9292600  28.5166760  62.1970690  19.6208450  29.2044580
  60.7891240  19.4572350  28.6726660  66.4264430  19.5458410  28.7499780
  65.7379950  18.8839950  28.6849770  67.1470450  19.0996680  29.1948240
  67.0564830  16.1410040  14.8090040  67.3367120  15.2977940  15.1649460
  66.2830560  16.3733150  15.3228790  58.3759320  18.4302430  12.2681040
  58.6785220  18.4369860  11.3600190  59.1153910  18.0800290  12.7648700
  63.2107960  33.1959290  27.2497480  63.1366660  34.0994430  27.5569850
  62.3086800  32.8771190  27.2219550  61.5944250  17.3737050  13.2537240
  61.2466250  16.6961040  12.6739690  61.7957020  16.9126560  14.0680630
  63.7593290  32.3617800  14.8723840  64.6544080  32.7002770  14.8942600
  63.7910920  31.6397210  14.2448120  57.3989450  27.7344850  13.1010840
  57.8364320  28.2774520  13.7568420  57.8837180  26.9091800  13.1107180
  54.6135250  30.5233880  20.5531100  54.9438260  29.6554940  20.3209740
  55.0426250  30.7292400  21.3836060  59.2097170  28.8542890  18.2133070
  58.9092710  28.7307860  19.1136980  59.1034660  27.9951480  17.8048800
  55.1025460  31.3904470  23.2912730  54.6656450  31.5705270  24.1236880
  55.6703140  32.1479090  23.1494450  70.7387640  30.8921470  27.5790040
  70.1389630  30.9514030  26.8353960  70.8681540  29.9526450  27.7086890
  71.9789090  28.6339290  12.9159750  71.1482050  28.7015940  13.3866980
  72.1560920  29.5243410  12.6126610  71.4345550  25.3786770  15.4193950
  72.1964460  25.9483420  15.5253640  71.4499920  24.8113970  16.1902260
  54.9349890  23.9024700  19.6501610  54.2798730  23.6336340  19.0061310
  55.7727840  23.7929180  19.2003590  72.4405520  26.2336870  20.2635880
  72.8114350  25.4504190  19.8571850  73.0807450  26.9225970  20.0853180
  69.4239280  27.6173450  25.6766200  68.6099120  28.0470610  25.9391990
  69.8313480  28.2291860  25.0635250  71.4864720  25.6721140  12.5766470
  71.7613560  26.5800020  12.4485690  71.2975460  25.6083670  13.5128460
  67.8840330  18.6965990  13.8720100  68.3025210  18.5096970  13.0316760
  67.5776390  17.8445040  14.1823030  71.3830060  23.6090130  17.5695900
  71.0073660  22.8418060  17.1377190  70.6533180  23.9912830  18.0570830
  55.9725820  24.2877270  24.1904950  56.3398860  24.2004670  25.0700970
  55.4036640  23.5243820  24.0911810  70.7729680  22.7561650  27.2035420
  70.5415770  22.5274400  26.3033370  71.0334230  23.6761200  27.1580310
  55.5241820  21.1986360  28.0963370  54.6297870  21.1653120  28.4357080
  56.0639370  21.3973150  28.8614620  69.2117750  17.9818080  29.9815120
  70.0887930  17.9901480  30.3649120  69.2238590  17.2448920  29.3707470
  54.1487970  21.1123630  15.5926940  53.2452050  21.3753830  15.4178600
  54.6328590  21.3834800  14.8126900  70.6581020  21.8347620  20.8703140
  71.1818500  21.3410270  20.2393310  71.2440440  21.9697980  21.6150710
  70.8370740  21.9187490  24.3922690  69.8873450  21.8851030  24.5067680
  71.0183750  22.8287600  24.1572460  56.6915180  20.1689170  13.5021320
  57.4006880  19.7472390  13.0168600  55.9755120  20.2364400  12.8704670
  56.3389340  16.2228500  12.5423970  57.0617470  16.7637440  12.8605190
  56.6113860  15.9491920  11.6665510  70.1480990  21.0920970  16.8095550
  70.6440110  20.8591840  17.5944430  69.9497060  20.2532810  16.3933190
  56.0281530  15.4734690  22.4446590  56.6757720  14.9232070  22.0041750
  56.4483370  15.7277840  23.2662400  71.5768150  19.7281920  19.3433230
  71.4667430  19.5737960  20.2815500  72.3375740  19.2002860  19.1008640
  69.9233870  15.6676050  25.8016230  70.5606090  16.2810190  26.1675420
  70.0708760  15.7036710  24.8565460  72.4658420  17.5589840  12.5839370
  73.3907730  17.4271020  12.3757660  72.4434210  17.6382660  13.5375820
  72.5396910  18.3300500  15.2096080  71.7448410  18.2645620  15.7388990
  72.7440190  19.2651140  15.1981430  69.4815330  32.3692050  19.2034470
  70.0774400  32.0476620  18.5268890  69.7393480  31.8963870  19.9947740
  55.7813530  15.6290360  25.1871910  55.4328350  16.0854180  25.9530090
  55.4501230  14.7347490  25.2694340  61.0883930  30.3569550  24.9534820
  60.8475290  30.6244110  24.0665340  62.0286570  30.5275280  25.0085680
  63.2938350  16.8202240  28.7091330  63.2327240  17.4124070  29.4586740
  64.2338730  16.7128200  28.5641590  65.9312910  16.4772300  28.3483620
  66.5453320  16.7951590  27.6864700  66.4762470  15.9920890  28.9679480
  72.3488090  32.3763930  25.7545460  71.8546370  32.7732800  25.0372590
  71.7401380  31.7513140  26.1482740  56.4534170  15.1566560  28.4622680
  57.0017160  14.9754610  27.6988790  56.5189480  14.3660670  28.9978990
  57.2265930  31.7472210  26.4722880  56.6326250  31.6156910  27.2112920
  57.2189770  30.9110350  26.0064980  66.6720950  15.0404440  24.6752910
  65.7980790  15.3739550  24.4725840  66.5631700  14.5677620  25.5004780
  67.5792930  17.2475310  26.0594630  67.2506290  16.4327070  25.6796360
  68.5275230  17.2045120  25.9360320  70.0327540  33.0187350  23.0332200
  69.5730510  33.7703160  22.6590220  69.4040000  32.2993820  22.9747000
  56.8578160  29.1130590  25.4230920  56.1312220  28.4935880  25.3556870
  56.9187310  29.5071200  24.5529000  60.4623260  31.3275590  22.2080330
  60.9788280  30.7162950  21.6828590  61.1120640  31.8304370  22.6991340
  63.2018760  32.2184080  23.0349310  63.4896570  31.9638380  22.1582320
  63.7141980  31.6661440  23.6254880  64.4195770  15.9574280  23.6145820
  63.6367560  16.4319780  23.8942580  64.1258700  15.0529110  23.5059000
  68.9716840  16.6597380  21.6594910  69.4124930  16.6042480  20.8116510
  68.7024430  17.5755390  21.7305090  70.8355410  16.2912620  19.6703730
  70.7743810  15.3473840  19.5234750  71.6147440  16.3992710  20.2157190
  55.1408160  32.4304980  18.6327680  54.9730200  31.7975660  19.3309570
  54.2742670  32.6364380  18.2821870  55.7636180  16.2621760  16.1359540
  56.5215540  16.3750640  15.5623570  55.3013350  17.0990960  16.0902970
  62.3049990  18.3761030  19.1261850  61.4924500  18.0017920  18.7857730
  62.8091630  17.6206110  19.4283040  66.8074970  15.0403480  20.3644920
  67.4104340  15.6123690  20.8393440  66.0667960  15.6042920  20.1418820
  69.9509570  15.4425040  15.6385200  70.1460200  16.3408490  15.9052630
  69.1639440  15.2112120  16.1318150  56.7470860  31.1238210  16.0777820
  56.2218480  31.5046240  15.3739780  56.6715440  31.7488980  16.7987530
  58.1361330  16.7885810  14.6761510  58.6654090  16.0015610  14.5469460
  58.7689650  17.4677000  14.9097040  60.3299170  16.5260950  17.7306900
  59.7001910  15.8248260  17.8977030  59.7904310  17.2865080  17.5140060
  63.2691120  33.1400180  30.4017510  64.1958430  32.9044450  30.4453470
  63.2541550  33.9672180  29.9203540  71.5036180  32.6825750  17.3991760
  71.6788370  31.9963490  16.7552680  70.8057750  33.2072800  17.0068430
  60.4554730  15.8044930  30.1659390  60.1739000  16.3078530  29.4020210
  60.8374430  15.0066680  29.8001520  59.3463830  33.0720590  14.9527070
  60.0782650  32.7879870  14.4050960  59.6057500  32.8333870  15.8426450
  58.5078620  29.1885320  14.9573400  57.8787500  29.6570420  15.5059230
  58.6226450  28.3434540  15.3919590  67.0570190  15.2198510  30.7439860
  66.9435640  15.5393120  31.6391380  67.8739930  15.6211020  30.4477140
  69.8368680  32.3670040  30.2258550  70.6294000  31.8719270  30.0184510
  70.1301830  33.0460180  30.8334160  64.0946380  25.0170000   2.9883870
  63.3188480  24.5370440   3.2782440  64.7459310  24.3375650   2.8140030
  58.1112210  25.3289810   3.8659630  57.2797090  25.0738520   4.2656140
  58.7193190  25.4000580   4.6017550  68.1153810  29.4230190   1.7683000
  67.6535340  28.6517430   2.0970170  68.9279360  29.4496260   2.2735450
  58.0913470  29.3629900   4.0617650  58.3941510  28.4727640   3.8827870
  58.8357060  29.9200120   3.8339900  54.4837170  22.8897350   3.5341720
  55.0553280  22.1219550   3.5345360  54.4838710  23.1886110   2.6248330
  63.5355370  27.6927190   2.9954030  63.4663650  26.7517130   2.8343160
  64.2975230  27.7828600   3.5676600  55.7262040  18.2981710   5.3210650
  55.5464880  17.4007460   5.6013410  55.3242120  18.8453580   5.9957600
  64.5660540  20.4997570   3.2222960  64.9425360  19.6269450   3.1096630
  64.4680050  20.8356270   2.3313400  56.3448710  20.7942210   3.9292990
  57.0258820  21.0580580   4.5480390  56.0296760  19.9543080   4.2631000
  60.5373280  21.8409570   3.0165580  61.0451500  22.3390540   3.6570600
  61.0686520  21.0644770   2.8404940  72.6384210  20.0114760   6.7194930
  71.9336380  20.3996470   6.2010040  72.9042130  20.7065050   7.3215860
  58.8209380  16.4808130   7.2829000  58.8227820  16.9980520   6.4774900
  57.9913690  16.0038310   7.2598930  60.0712230  26.1203310   5.4602500
  59.7381610  26.7472230   6.1023570  60.2478910  26.6465190   4.6804170
  68.5846140  19.9348390   2.9278840  67.8801710  20.2233280   3.5081950
  68.9458300  20.7448500   2.5678400  58.5024710  18.1918090   5.2899450
  58.8441520  19.0360140   4.9953320  57.5640520  18.3401830   5.4064790
  59.2831330  28.0884110   7.2751680  59.9005330  28.7635190   6.9936130
  58.4224450  28.4972090   7.1839180  70.2008920  29.5523520   5.1906320
  69.5172440  30.2222630   5.1822990  70.7403210  29.7504170   4.4251180
  71.6533060  19.3803180   3.3188050  70.7057970  19.4142160   3.4503480
  71.9783050  20.1942130   3.7037410  67.7367660  31.3967650   3.9051500
  67.7494820  30.9929940   3.0373760  67.1842880  32.1714940   3.8012930
  67.1353100  26.2997490   5.2334110  67.5521890  26.0857600   4.3987570
  67.8592920  26.5570280   5.8042730  71.0815200  24.6984710   5.3250350
  70.2533830  24.7677800   4.8500480  71.6765680  25.2839020   4.8566180
  68.0457210  21.4854030   6.2705220  67.6328390  22.3107740   6.5245210
  67.3133160  20.8999070   6.0781580  60.6471700  27.9581490   3.2963100
  60.3499990  27.3526960   2.6170880  61.5971520  27.9958800   3.1852460
  58.8918620  21.0457140   4.9122930  59.4433210  21.1552480   4.1376180
  59.4062130  21.4194740   5.6278160  68.7357310  31.5313360   6.9586200
  68.2587870  32.3385550   6.7658810  68.0519100  30.8791690   7.1112410
  59.7390130  27.6963180   9.9470900  58.8418660  27.9203150  10.1944300
  59.7643000  27.8198120   8.9982300  58.5661350  24.5676500   8.5228270
  58.4269120  25.4399300   8.8915670  57.6842710  24.2249310   8.3776210
  60.3641700  30.5098200  10.7313420  60.3357130  30.9141150   9.8641850
  60.2006670  29.5808560  10.5685020  72.3156520  31.2925300  12.0277590
  72.7916240  31.7708190  12.7066670  72.9363680  31.2242790  11.3023090
  54.5180000  26.3374050   4.4399180  54.5960420  26.4722820   3.4954900
  55.1321680  25.6289940   4.6327300  71.7189770  28.4838150   9.1877600
  71.8452830  28.2450030   8.2694780  71.7611150  27.6522690   9.6599680
  65.5806510  32.1866150   7.7572410  66.0951180  32.0974160   8.5594840
  64.7375590  32.5325850   8.0500320  71.5713780  20.5370610  10.1527340
  70.9558050  21.0450280   9.6242800  71.2510200  19.6368940  10.0953280
  54.5739520  27.3788220   6.9793640  54.7370560  26.9093580   6.1613010
  55.0391970  26.8711780   7.6442480  59.3458290  16.5093980   2.0154210
  58.9026440  17.2903520   1.6838730  59.9043280  16.8323870   2.7225150
  63.6328100  19.3762500   7.6189530  63.1707470  19.5845520   8.4309470
  63.2306210  18.5621850   7.3160200  68.6332610  20.5971450   8.7486190
  67.7826200  20.2977200   9.0695260  68.4734400  20.8413460   7.8370010
  65.7282320  22.0973200  10.8484980  66.0535730  21.2636950  10.5087210
  66.5162650  22.6201720  10.9963310  61.3834190  17.0541310   3.8743810
  61.6806520  17.9604140   3.7935830  61.9319750  16.5660090   3.2603380
  61.5771720  22.5313130  10.4095730  61.4815320  21.5907860  10.2596130
  62.4203700  22.7528200  10.0143800  56.7082260  18.9426800   8.5629510
  56.3145650  19.7902010   8.7702290  56.0200660  18.3053170   8.7538150
  63.2827310  19.0261770  11.6326250  62.5925630  18.8333970  12.2672340
  64.0259610  19.3096410  12.1650550  54.0099310  16.8655260   2.5959590
  53.7212360  17.4358120   3.3084570  54.7545070  16.3859710   2.9590820
  65.5590280  22.8660210   4.4680170  64.8271400  23.3747020   4.8170270
  65.1614620  22.0490190   4.1668950  61.9967670  19.5414410   2.8732660
  62.0003730  19.1004360   2.0237200  62.8918790  19.8631740   2.9804480
  66.0216190  18.3193890   3.8803110  66.0388930  18.7702540   4.7244960
  65.7731770  17.4199530   4.0936550  69.4486940  15.7326070   9.7189490
  69.7732710  15.0015730  10.2447470  69.4843450  15.4139710   8.8170480
  56.1478500  26.7539650   9.1389450  55.7633290  26.1133320   9.7372410
  56.4590690  27.4575770   9.7084180  62.2975640  23.6016190   4.6198070
  62.6645770  23.1274760   5.3659410  62.1080700  24.4757760   4.9606410
  60.0875010  22.6424830   6.9382280  59.7832080  23.5216810   7.1632640
  61.0421470  22.7024620   6.9739720  69.3744780  25.8451180   3.3275520
  70.0943900  26.3406470   2.9371630  69.1726600  25.1669070   2.6829390
  64.7563580  25.9160240   9.2144520  64.6900890  24.9955910   8.9602110
  64.1268720  26.0135680   9.9289160  56.1438740  23.4827570   8.0853640
  55.7853680  24.1481420   8.6726980  55.8493300  22.6511120   8.4566260
  59.3451860  23.9411810  10.9693190  59.0452000  24.0868990  10.0721010
  60.1163100  23.3817100  10.8766580  64.6880310  28.7380810   8.9648320
  64.7024850  27.8061770   8.7467230  63.9805410  28.8240570   9.6038090
  70.8991520  25.3788150   8.3116900  70.1739710  25.9716930   8.1146290
  71.4266980  25.3711690   7.5130270  64.1214210  30.3798380   6.0588820
  64.7656430  30.5857760   6.7362240  64.4843650  29.6186780   5.6059670
  65.3946290  28.3830730   4.7766270  66.0368520  27.6823890   4.8898440
  65.9195640  29.1629170   4.5963160  67.1683910  29.1825630   7.9802330
  67.5040150  29.7692320   8.6580250  66.2484250  29.0518340   8.2100120
  54.7187310  16.9720810   8.7625740  54.0045830  17.1717730   9.3678350
  55.1382350  16.1960380   9.1340540  55.0059900  30.9601070   9.7492270
  55.1151020  30.0195810   9.6087660  54.3540460  31.2255820   9.1006000
  62.9972490  29.2316960  11.1490390  62.6769360  28.5126200  11.6936080
  62.3230850  29.9072030  11.2226450  66.2126090  19.4643120   6.5127190
  66.5806910  18.6438330   6.8406760  65.3524290  19.5245010   6.9282840
  63.1728080  22.1182710   6.7365160  63.6713330  22.5928530   7.4017010
  63.3151030  21.1946230   6.9435190  70.3794940  18.3350670   7.5793550
  69.8768540  19.0756070   7.9187360  71.1951600  18.7234670   7.2630340
  70.6742530  30.7492700   2.7009170  70.7989950  31.5723870   3.1732980
  71.5408090  30.5383430   2.3533320  58.1460060  32.8423910   2.3726300
  58.8822540  32.2939370   2.6434870  58.5300980  33.7079920   2.2332290
  57.1518340  32.0269980  11.5611880  57.9531070  32.3482030  11.9747280
  56.6370160  31.6665560  12.2831790  65.9882970  28.1349850  11.5087290
  65.3821130  28.1581450  10.7683040  65.6837080  27.4032890  12.0454540
  67.4183340  31.8630140  10.1196700  68.3705090  31.7788160  10.0696940
  67.2711560  32.5271850  10.7930490  54.8716150  24.5143440  10.5047930
  55.3755170  23.9350720  11.0764160  54.1323570  24.7983670  11.0424300
  61.9254090  25.9214430  10.0383450  61.1599760  26.4899430   9.9538120
  62.1070050  25.6290640   9.1451680  69.0677440  27.6519760  10.5958470
  69.8086910  27.9895520  10.0925930  68.3050120  27.8211820  10.0428240
  56.9039230  22.6573030  11.3998000  56.9444570  22.3586900  12.3083230
  57.7584730  23.0580640  11.2405520  58.8445040  21.2365130   9.3672490
  58.3141500  20.7456080   8.7395830  59.5133110  21.6649330   8.8330420
  67.7423100  25.7034590   9.1313680  68.1564120  25.8579670   9.9804100
  66.8074100  25.8289810   9.2939460  68.2145270  23.0430750  11.1352830
  68.7966040  22.2883070  11.0473310  68.3907040  23.5738190  10.3584310
  59.3317340  18.2027500   9.4469780  59.2374210  17.5848250   8.7220650
  58.7514730  18.9293790   9.2199690  62.0978780  16.7600740   6.4797170
  61.6496080  16.7825000   5.6342720  61.4643980  16.3619760   7.0767470
  62.5038330  25.6555070   7.1009610  62.9226440  26.4987800   6.9285850
  61.5846960  25.7927110   6.8716390  64.8402230  23.3871250   8.4847450
  64.9598440  22.7912390   9.2242290  65.6996230  23.4240940   8.0648750
  67.1790130  23.9408440   7.0609960  66.6525350  24.4651060   6.4575100
  67.5221470  24.5735830   7.6919690  60.3545750  31.9608080   8.2167340
  59.8166840  32.6854140   7.8976040  60.6079710  31.4838420   7.4264680
  61.6071000  19.9292600   9.7423270  62.1970690  19.6208450  10.4301090
  60.7891240  19.4572350   9.8983170  66.4264430  19.5458410   9.9756290
  65.7379950  18.8839950   9.9106280  67.1470450  19.0996680  10.4204750
  63.2107960  33.1959290   8.4753990  63.1366660  34.0994430   8.7826360
  62.3086800  32.8771190   8.4476060  55.1025460  31.3904470   4.5169240
  54.6656450  31.5705270   5.3493390  55.6703140  32.1479090   4.3750960
  70.7387640  30.8921470   8.8046550  70.1389630  30.9514030   8.0610470
  70.8681540  29.9526450   8.9343400  69.4239280  27.6173450   6.9022710
  68.6099120  28.0470610   7.1648500  69.8313480  28.2291860   6.2891760
  55.9725820  24.2877270   5.4161460  56.3398860  24.2004670   6.2957480
  55.4036640  23.5243820   5.3168320  70.7729680  22.7561650   8.4291930
  70.5415770  22.5274400   7.5289880  71.0334230  23.6761200   8.3836820
  55.5241820  21.1986360   9.3219880  54.6297870  21.1653120   9.6613590
  56.0639370  21.3973150  10.0871130  69.2117750  17.9818080  11.2071630
  70.0887930  17.9901480  11.5905630  69.2238590  17.2448920  10.5963980
  70.8370740  21.9187490   5.6179200  69.8873450  21.8851030   5.7324190
  71.0183750  22.8287600   5.3828970  56.0281530  15.4734690   3.6703100
  56.6757720  14.9232070   3.2298260  56.4483370  15.7277840   4.4918910
  69.9233870  15.6676050   7.0272740  70.5606090  16.2810190   7.3931930
  70.0708760  15.7036710   6.0821970  55.7813530  15.6290360   6.4128420
  55.4328350  16.0854180   7.1786600  55.4501230  14.7347490   6.4950850
  57.3877900  28.8009960  10.5781610  57.3447530  28.4302870  11.4596070
  57.5188910  29.7387530  10.7183430  61.0883930  30.3569550   6.1791330
  60.8475290  30.6244110   5.2921850  62.0286570  30.5275280   6.2342190
  63.2938350  16.8202240   9.9347840  63.2327240  17.4124070  10.6843250
  64.2338730  16.7128200   9.7898100  65.9312910  16.4772300   9.5740130
  66.5453320  16.7951590   8.9121210  66.4762470  15.9920890  10.1935990
  72.3488090  32.3763930   6.9801970  71.8546370  32.7732800   6.2629100
  71.7401380  31.7513140   7.3739250  56.4534170  15.1566560   9.6879190
  57.0017160  14.9754610   8.9245300  56.5189480  14.3660670  10.2235500
  57.2265930  31.7472210   7.6979390  56.6326250  31.6156910   8.4369430
  57.2189770  30.9110350   7.2321490  66.6720950  15.0404440   5.9009420
  65.7980790  15.3739550   5.6982350  66.5631700  14.5677620   6.7261290
  67.5792930  17.2475310   7.2851140  67.2506290  16.4327070   6.9052870
  68.5275230  17.2045120   7.1616830  70.0327540  33.0187350   4.2588710
  69.5730510  33.7703160   3.8846730  69.4040000  32.2993820   4.2003510
  56.8578160  29.1130590   6.6487430  56.1312220  28.4935880   6.5813380
  56.9187310  29.5071200   5.7785510  60.4623260  31.3275590   3.4336840
  60.9788280  30.7162950   2.9085100  61.1120640  31.8304370   3.9247850
  63.2018760  32.2184080   4.2605820  63.4896570  31.9638380   3.3838830
  63.7141980  31.6661440   4.8511390  64.4195770  15.9574280   4.8402330
  63.6367560  16.4319780   5.1199090  64.1258700  15.0529110   4.7315510
  68.9716840  16.6597380   2.8851420  69.4124930  16.6042480   2.0373020
  68.7024430  17.5755390   2.9561600  63.2691120  33.1400180  11.6274020
  64.1958430  32.9044450  11.6709980  63.2541550  33.9672180  11.1460050
  60.4554730  15.8044930  11.3915900  60.1739000  16.3078530  10.6276720
  60.8374430  15.0066680  11.0258030  67.0570190  15.2198510  11.9696370
  66.9435640  15.5393120  12.8647890  67.8739930  15.6211020  11.6733650
  69.8368680  32.3670040  11.4515060  70.6294000  31.8719270  11.2441020
  70.1301830  33.0460180  12.0590670  65.9628340   4.4647490  76.2048560
  65.8822390   3.5502100  75.9340270  65.5492760   4.9614560  75.4988270
  64.0946380   6.2426510  78.0857830  63.3188480   5.7626950  78.3756400
  64.7459310   5.5632160  77.9113990  68.1153810  10.6486700  76.8656960
  67.6535340   9.8773940  77.1944130  68.9279360  10.6752770  77.3709410
  54.4837170   4.1153860  78.6315680  55.0553280   3.3476060  78.6319320
  54.4838710   4.4142620  77.7222290  64.3417120  12.9344710  76.4860950
  63.7228560  13.3902210  75.9155390  65.1968900  13.0896170  76.0850650
  63.5355370   8.9183700  78.0927990  63.4663650   7.9773640  77.9317120
  64.2975230   9.0085110  78.6650560  60.5373280   3.0666080  78.1139540
  61.0451500   3.5647050  78.7544560  61.0686520   2.2901280  77.9378900
  65.2080470   7.8183950  73.8792860  64.5897740   8.2833400  73.3155580
  65.7203720   8.5111430  74.2962370  54.5763670   8.5040480  71.2532490
  54.1991650   8.9927580  70.5217390  54.8336740   9.1765760  71.8839020
  69.0313080   9.3440380  74.0915630  68.9209410   8.4014710  74.2165050
  69.0281330   9.7056020  74.9778390  64.5733360   4.9705700  73.4478120
  63.6462640   4.9043080  73.6766590  64.7258180   5.9085830  73.3333360
  68.6030650   6.5326000  73.9513370  67.9843070   6.1945550  73.3039670
  68.5855100   5.8885760  74.6592560  60.1790000   5.4970440  76.2297850
  59.7747000   4.7847690  75.7343750  60.2653120   5.1523680  77.1185890
  60.6471700   9.1838000  78.3937060  60.3499990   8.5783470  77.7144840
  61.5971520   9.2215310  78.2826420  66.7795350   5.7712810  70.9586120
  67.2188630   4.9335240  70.8123940  67.4923770   6.4042210  71.0450260
  64.8890730  10.7108880  74.9267360  65.3286640  11.4533210  74.5122750
  64.8277620  10.9535450  75.8506320  56.8794630   4.3915420  73.7304500
  56.7592230   5.1177510  73.1185770  56.5695520   3.6218330  73.2532410
  55.7627630   9.2630750  75.9479320  55.3555710   9.4045340  75.0932920
  56.6540640   8.9790910  75.7450530  67.5560910  13.6978000  72.2830370
  67.3962050  13.4080940  73.1812200  67.3907620  12.9218130  71.7475600
  60.0349290  13.4776530  74.0601990  59.8591770  12.5612070  73.8469790
  59.1805030  13.8363820  74.2999790  67.2587040  11.2065560  70.8428370
  66.5652200  11.2042850  70.1830650  68.0009900  10.7824880  70.4122540
  66.8236970  12.8328270  74.9176860  67.2793920  12.0517650  75.2315480
  67.1629490  13.5435090  75.4618040  59.1372510   2.8584060  74.8409420
  58.9113430   2.6421230  75.7456040  58.3565040   3.2912520  74.4955390
  66.3670270   2.8647430  73.4400070  65.7679160   3.5883230  73.2563690
  66.9149880   2.8024210  72.6576520  54.1969540   2.0331890  68.9036270
  54.1144210   2.9762650  69.0451260  53.8452600   1.8906800  68.0248620
  62.0587820   1.7683000  70.9613380  62.1800640   1.7269480  71.9099200
  61.6736330   2.6307150  70.8060110  61.0709320   4.0784140  70.3596680
  60.5026220   3.6302390  69.7332590  61.7798320   4.4376920  69.8261830
  58.6156800   8.0742330  72.6323090  57.8419060   7.5339950  72.4721810
  59.3451430   7.5548940  72.2940850  69.3744780   7.0707690  78.4249480
  70.0943900   7.5662980  78.0345590  69.1726600   6.3925580  77.7803350
  67.5503110   2.8365300  70.8641030  68.4382730   3.1482530  70.6892370
  67.5208200   1.9637550  70.4721610  58.6594200   7.7422710  76.2701900
  59.1772870   6.9390970  76.2158790  58.2078220   7.6801850  77.1118730
  63.5463700   9.0088990  71.5429200  63.8879400   9.7531220  71.0472520
  62.7176410   9.3220110  71.9054030  69.8217380   4.1477140  70.3320890
  69.7381100   4.5791360  69.4817330  70.5411570   4.6075490  70.7647710
  70.8504630  11.0019400  73.0603020  70.2080790  10.3475020  73.3346740
  70.4635290  11.4074490  72.2843690  66.4291110   8.3304830  76.9074710
  66.7814930   7.7332960  76.2476080  65.5453440   8.0049060  77.0782960
  62.5154390   9.0902520  74.3145120  63.2025520   9.6371730  74.6952710
  61.7286810   9.6343250  74.3494730  54.6546790   4.7075340  69.8062200
  55.5241640   4.9900140  70.0898120  54.1637110   5.5211210  69.6911010
  61.8181600   6.0948550  73.9270480  62.2744380   6.9053800  74.1530670
  61.4669810   5.7771690  74.7588970  69.2402010   9.8935860  69.5979370
  69.0139590   9.1766300  70.1904010  68.8498210   9.6448300  68.7601120
  55.0218040  13.9202720  70.3723830  55.3815680  14.5192060  69.7181100
  54.8810380  14.4662610  71.1458860  68.8218260   7.8107800  71.2593530
  68.5339960   8.2720490  72.0471410  69.6170430   7.3505570  71.5277750
  61.0386660  11.3033920  71.1897500  61.0296760  12.0363610  70.5742010
  60.1185020  11.0565500  71.2824460  56.6393300   6.5248810  71.9344260
  56.0321250   7.2647710  71.9439560  57.1142650   6.6148170  71.1082460
  64.0246260  11.3662160  69.8522690  64.1258240  11.1626150  68.9224670
  63.1248000  11.1120440  70.0570470  62.6664370  13.8848480  74.5470360
  62.9205870  13.8469870  73.6249730  61.7176850  13.7581810  74.5398610
  68.6716950   4.8040360  76.1228870  67.7307090   4.8190590  76.2976560
  68.9861020   4.0176320  76.5689170  58.6498590   6.4859960  69.6832830
  59.4161860   6.3741320  70.2458260  58.7273280   5.7897930  69.0309600
  57.3445350   3.9185030  70.3665720  57.4248940   2.9712540  70.4783120
  58.2365100   4.2491910  70.4726380  70.6742530  11.9749210  77.7983130
  70.7989950  12.7980380  78.2706940  71.5408090  11.7639940  77.4507280
  58.1460060  14.0680420  77.4700260  58.8822540  13.5195880  77.7408830
  58.5300980  14.9336430  77.3306250  55.0305540  10.1353990  73.3441770
  54.1045320  10.3775130  73.3347180  55.4961970  10.9628250  73.2226520
  61.2562370  13.2410730  69.2925830  62.0490980  13.5299560  68.8407620
  60.7366720  12.8102900  68.6138310  70.3092540  12.4680860  70.7162570
  70.0234050  12.0546000  69.9016750  70.1112090  13.3968570  70.5963090
  61.7739770   8.4614140  69.1568180  61.6690410   7.8466490  69.8829560
  61.6063990   7.9380030  68.3731190  65.0142500   7.5234170  69.7610170
  64.4652600   7.9703470  70.4052910  65.6361760   7.0183420  70.2847840
  60.6817620   6.4825090  71.6575470  61.1034040   6.3164960  72.5006860
  60.8068460   5.6725320  71.1630610  63.1945260   5.5062700  68.9052570
  63.7150920   4.7911720  68.5393720  63.8413660   6.1448570  69.2053080
  59.5776520   2.5558320  68.6033630  59.3765580   1.6925680  68.9646970
  59.4068570   2.4691680  67.6655230  63.7593290  13.5874310  71.1954310
  64.6544080  13.9259280  71.2173070  63.7910920  12.8653720  70.5678590
  57.3989450   8.9601360  69.4241310  57.8364320   9.5031030  70.0798890
  57.8837180   8.1348310  69.4337650  54.6135250  11.7490390  76.8761570
  54.9438260  10.8811450  76.6440210  55.0426250  11.9548910  77.7066530
  59.2097170  10.0799400  74.5363540  58.9092710   9.9564370  75.4367450
  59.1034660   9.2207990  74.1279270  71.9789090   9.8595800  69.2390220
  71.1482050   9.9272450  69.7097450  72.1560920  10.7499920  68.9357080
  71.4345550   6.6043280  71.7424420  72.1964460   7.1739930  71.8484110
  71.4499920   6.0370480  72.5132730  54.9349890   5.1281210  75.9732080
  54.2798730   4.8592850  75.3291780  55.7727840   5.0185690  75.5234060
  72.4405520   7.4593380  76.5866350  72.8114350   6.6760700  76.1802320
  73.0807450   8.1482480  76.4083650  71.4864720   6.8977650  68.8996940
  71.7613560   7.8056530  68.7716160  71.2975460   6.8340180  69.8358930
  71.3830060   4.8346640  73.8926370  71.0073660   4.0674570  73.4607660
  70.6533180   5.2169340  74.3801300  54.1487970   2.3380140  71.9157410
  53.2452050   2.6010340  71.7409070  54.6328590   2.6091310  71.1357370
  70.6581020   3.0604130  77.1933610  71.1818500   2.5666780  76.5623780
  71.2440440   3.1954490  77.9381180  70.1480990   2.3177480  73.1326020
  70.6440110   2.0848350  73.9174900  69.9497060   1.4789320  72.7163660
  69.4815330  13.5948560  75.5264940  70.0774400  13.2733130  74.8499360
  69.7393480  13.1220380  76.3178210  55.1408160  13.6561490  74.9558150
  54.9730200  13.0232170  75.6540040  54.2742670  13.8620890  74.6052340
  56.7470860  12.3494720  72.4008290  56.2218480  12.7302750  71.6970250
  56.6715440  12.9745490  73.1218000  71.5036180  13.9082260  73.7222230
  71.6788370  13.2220000  73.0783150  70.8057750  14.4329310  73.3298900
  59.3463830  14.2977100  71.2757540  60.0782650  14.0136380  70.7281430
  59.6057500  14.0590380  72.1656920  58.5078620  10.4141830  71.2803870
  57.8787500  10.8826930  71.8289700  58.6226450   9.5691050  71.7150060
  65.9628340   4.4647490  57.4305070  65.8822390   3.5502100  57.1596780
  65.5492760   4.9614560  56.7244780  64.0946380   6.2426510  59.3114340
  63.3188480   5.7626950  59.6012910  64.7459310   5.5632160  59.1370500
  58.1112210   6.5546320  60.1890100  57.2797090   6.2995030  60.5886610
  58.7193190   6.6257090  60.9248020  68.1153810  10.6486700  58.0913470
  67.6535340   9.8773940  58.4200640  68.9279360  10.6752770  58.5965920
  58.0913470  10.5886410  60.3848120  58.3941510   9.6984150  60.2058340
  58.8357060  11.1456630  60.1570370  54.4837170   4.1153860  59.8572190
  55.0553280   3.3476060  59.8575830  54.4838710   4.4142620  58.9478800
  64.3417120  12.9344710  57.7117460  63.7228560  13.3902210  57.1411900
  65.1968900  13.0896170  57.3107160  63.5355370   8.9183700  59.3184500
  63.4663650   7.9773640  59.1573630  64.2975230   9.0085110  59.8907070
  60.5373280   3.0666080  59.3396050  61.0451500   3.5647050  59.9801070
  61.0686520   2.2901280  59.1635410  65.2080470   7.8183950  55.1049370
  64.5897740   8.2833400  54.5412090  65.7203720   8.5111430  55.5218880
  60.0712230   7.3459820  61.7832970  59.7381610   7.9728740  62.4254040
  60.2478910   7.8721700  61.0034640  59.2831330   9.3140620  63.5982150
  59.9005330   9.9891700  63.3166600  58.4224450   9.7228600  63.5069650
  54.5763670   8.5040480  52.4789000  54.1991650   8.9927580  51.7473900
  54.8336740   9.1765760  53.1095530  70.2008920  10.7780030  61.5136790
  69.5172440  11.4479140  61.5053460  70.7403210  10.9760680  60.7481650
  67.7367660  12.6224160  60.2281970  67.7494820  12.2186450  59.3604230
  67.1842880  13.3971450  60.1243400  69.0313080   9.3440380  55.3172140
  68.9209410   8.4014710  55.4421560  69.0281330   9.7056020  56.2034900
  67.1353100   7.5254000  61.5564580  67.5521890   7.3114110  60.7218040
  67.8592920   7.7826790  62.1273200  64.5733360   4.9705700  54.6734630
  63.6462640   4.9043080  54.9023100  64.7258180   5.9085830  54.5589870
  71.0815200   5.9241220  61.6480820  70.2533830   5.9934310  61.1730950
  71.6765680   6.5095530  61.1796650  68.6030650   6.5326000  55.1769880
  67.9843070   6.1945550  54.5296180  68.5855100   5.8885760  55.8849070
  68.0457210   2.7110540  62.5935690  67.6328390   3.5364250  62.8475680
  67.3133160   2.1255580  62.4012050  60.1790000   5.4970440  57.4554360
  59.7747000   4.7847690  56.9600260  60.2653120   5.1523680  58.3442400
  60.6471700   9.1838000  59.6193570  60.3499990   8.5783470  58.9401350
  61.5971520   9.2215310  59.5082930  58.8918620   2.2713650  61.2353400
  59.4433210   2.3808990  60.4606650  59.4062130   2.6451250  61.9508630
  68.7357310  12.7569870  63.2816670  68.2587870  13.5642060  63.0889280
  68.0519100  12.1048200  63.4342880  59.7390130   8.9219690  66.2701370
  58.8418660   9.1459660  66.5174770  59.7643000   9.0454630  65.3212770
  66.7795350   5.7712810  52.1842630  67.2188630   4.9335240  52.0380450
  67.4923770   6.4042210  52.2706770  58.5661350   5.7933010  64.8458740
  58.4269120   6.6655810  65.2146140  57.6842710   5.4505820  64.7006680
  64.8890730  10.7108880  56.1523870  65.3286640  11.4533210  55.7379260
  64.8277620  10.9535450  57.0762830  60.3641700  11.7354710  67.0543890
  60.3357130  12.1397660  66.1872320  60.2006670  10.8065070  66.8915490
  56.8794630   4.3915420  54.9561010  56.7592230   5.1177510  54.3442280
  56.5695520   3.6218330  54.4788920  72.3156520  12.5181810  68.3508060
  72.7916240  12.9964700  69.0297140  72.9363680  12.4499300  67.6253560
  54.5180000   7.5630560  60.7629650  54.5960420   7.6979330  59.8185370
  55.1321680   6.8546450  60.9557770  55.7627630   9.2630750  57.1735830
  55.3555710   9.4045340  56.3189430  56.6540640   8.9790910  56.9707040
  71.7189770   9.7094660  65.5108070  71.8452830   9.4706540  64.5925250
  71.7611150   8.8779200  65.9830150  65.5806510  13.4122660  64.0802880
  66.0951180  13.3230670  64.8825310  64.7375590  13.7582360  64.3730790
  67.5560910  13.6978000  53.5086880  67.3962050  13.4080940  54.4068710
  67.3907620  12.9218130  52.9732110  60.0349290  13.4776530  55.2858500
  59.8591770  12.5612070  55.0726300  59.1805030  13.8363820  55.5256300
  67.2587040  11.2065560  52.0684880  66.5652200  11.2042850  51.4087160
  68.0009900  10.7824880  51.6379050  66.8236970  12.8328270  56.1433370
  67.2793920  12.0517650  56.4571990  67.1629490  13.5435090  56.6874550
  54.5739520   8.6044730  63.3024110  54.7370560   8.1350090  62.4843480
  55.0391970   8.0968290  63.9672950  68.6332610   1.8227960  65.0716660
  67.7826200   1.5233710  65.3925730  68.4734400   2.0669970  64.1600480
  65.7282320   3.3229710  67.1715450  66.0535730   2.4893460  66.8317680
  66.5162650   3.8458230  67.3193780  59.1372510   2.8584060  56.0665930
  58.9113430   2.6421230  56.9712550  58.3565040   3.2912520  55.7211900
  66.3670270   2.8647430  54.6656580  65.7679160   3.5883230  54.4820200
  66.9149880   2.8024210  53.8833030  61.5771720   3.7569640  66.7326200
  61.4815320   2.8164370  66.5826600  62.4203700   3.9784710  66.3374270
  54.1969540   2.0331890  50.1292780  54.1144210   2.9762650  50.2707770
  53.8452600   1.8906800  49.2505130  65.5590280   4.0916720  60.7910640
  64.8271400   4.6003530  61.1400740  65.1614620   3.2746700  60.4899420
  62.0587820   1.7683000  52.1869890  62.1800640   1.7269480  53.1355710
  61.6736330   2.6307150  52.0316620  61.0709320   4.0784140  51.5853190
  60.5026220   3.6302390  50.9589100  61.7798320   4.4376920  51.0518340
  56.1478500   7.9796160  65.4619920  55.7633290   7.3389830  66.0602880
  56.4590690   8.6832280  66.0314650  62.2975640   4.8272700  60.9428540
  62.6645770   4.3531270  61.6889880  62.1080700   5.7014270  61.2836880
  60.0875010   3.8681340  63.2612750  59.7832080   4.7473320  63.4863110
  61.0421470   3.9281130  63.2970190  58.6156800   8.0742330  53.8579600
  57.8419060   7.5339950  53.6978320  59.3451430   7.5548940  53.5197360
  69.3744780   7.0707690  59.6505990  70.0943900   7.5662980  59.2602100
  69.1726600   6.3925580  59.0059860  64.7563580   7.1416750  65.5374990
  64.6900890   6.2212420  65.2832580  64.1268720   7.2392190  66.2519630
  67.5503110   2.8365300  52.0897540  68.4382730   3.1482530  51.9148880
  67.5208200   1.9637550  51.6978120  58.6594200   7.7422710  57.4958410
  59.1772870   6.9390970  57.4415300  58.2078220   7.6801850  58.3375240
  63.5463700   9.0088990  52.7685710  63.8879400   9.7531220  52.2729030
  62.7176410   9.3220110  53.1310540  56.1438740   4.7084080  64.4084110
  55.7853680   5.3737930  64.9957450  55.8493300   3.8767630  64.7796730
  59.3451860   5.1668320  67.2923660  59.0452000   5.3125500  66.3951480
  60.1163100   4.6073610  67.1997050  64.6880310   9.9637320  65.2878790
  64.7024850   9.0318280  65.0697700  63.9805410  10.0497080  65.9268560
  69.8217380   4.1477140  51.5577400  69.7381100   4.5791360  50.7073840
  70.5411570   4.6075490  51.9904220  70.8991520   6.6044660  64.6347370
  70.1739710   7.1973440  64.4376760  71.4266980   6.5968200  63.8360740
  70.8504630  11.0019400  54.2859530  70.2080790  10.3475020  54.5603250
  70.4635290  11.4074490  53.5100200  66.4291110   8.3304830  58.1331220
  66.7814930   7.7332960  57.4732590  65.5453440   8.0049060  58.3039470
  62.5154390   9.0902520  55.5401630  63.2025520   9.6371730  55.9209220
  61.7286810   9.6343250  55.5751240  54.6546790   4.7075340  51.0318710
  55.5241640   4.9900140  51.3154630  54.1637110   5.5211210  50.9167520
  61.8181600   6.0948550  55.1526990  62.2744380   6.9053800  55.3787180
  61.4669810   5.7771690  55.9845480  64.1214210  11.6054890  62.3819290
  64.7656430  11.8114270  63.0592710  64.4843650  10.8443290  61.9290140
  65.3946290   9.6087240  61.0996740  66.0368520   8.9080400  61.2128910
  65.9195640  10.3885680  60.9193630  69.2402010   9.8935860  50.8235880
  69.0139590   9.1766300  51.4160520  68.8498210   9.6448300  49.9857630
  67.1683910  10.4082140  64.3032800  67.5040150  10.9948830  64.9810720
  66.2484250  10.2774850  64.5330590  55.0218040  13.9202720  51.5980340
  55.3815680  14.5192060  50.9437610  54.8810380  14.4662610  52.3715370
  68.8218260   7.8107800  52.4850040  68.5339960   8.2720490  53.2727920
  69.6170430   7.3505570  52.7534260  55.0059900  12.1857580  66.0722740
  55.1151020  11.2452320  65.9318130  54.3540460  12.4512330  65.4236470
  62.9972490  10.4573470  67.4720860  62.6769360   9.7382710  68.0166550
  62.3230850  11.1328540  67.5456920  61.0386660  11.3033920  52.4154010
  61.0296760  12.0363610  51.7998520  60.1185020  11.0565500  52.5080970
  56.6393300   6.5248810  53.1600770  56.0321250   7.2647710  53.1696070
  57.1142650   6.6148170  52.3338970  64.0246260  11.3662160  51.0779200
  64.1258240  11.1626150  50.1481180  63.1248000  11.1120440  51.2826980
  63.1728080   3.3439220  63.0595630  63.6713330   3.8185040  63.7247480
  63.3151030   2.4202740  63.2665660  62.6664370  13.8848480  55.7726870
  62.9205870  13.8469870  54.8506240  61.7176850  13.7581810  55.7655120
  68.6716950   4.8040360  57.3485380  67.7307090   4.8190590  57.5233070
  68.9861020   4.0176320  57.7945680  58.6498590   6.4859960  50.9089340
  59.4161860   6.3741320  51.4714770  58.7273280   5.7897930  50.2566110
  57.3445350   3.9185030  51.5922230  57.4248940   2.9712540  51.7039630
  58.2365100   4.2491910  51.6982890  70.6742530  11.9749210  59.0239640
  70.7989950  12.7980380  59.4963450  71.5408090  11.7639940  58.6763790
  58.1460060  14.0680420  58.6956770  58.8822540  13.5195880  58.9665340
  58.5300980  14.9336430  58.5562760  55.0305540  10.1353990  54.5698280
  54.1045320  10.3775130  54.5603690  55.4961970  10.9628250  54.4483030
  57.1518340  13.2526490  67.8842350  57.9531070  13.5738540  68.2977750
  56.6370160  12.8922070  68.6062260  61.2562370  13.2410730  50.5182340
  62.0490980  13.5299560  50.0664130  60.7366720  12.8102900  49.8394820
  65.9882970   9.3606360  67.8317760  65.3821130   9.3837960  67.0913510
  65.6837080   8.6289400  68.3685010  67.4183340  13.0886650  66.4427170
  68.3705090  13.0044670  66.3927410  67.2711560  13.7528360  67.1160960
  70.3092540  12.4680860  51.9419080  70.0234050  12.0546000  51.1273260
  70.1112090  13.3968570  51.8219600  54.8716150   5.7399950  66.8278400
  55.3755170   5.1607230  67.3994630  54.1323570   6.0240180  67.3654770
  61.7739770   8.4614140  50.3824690  61.6690410   7.8466490  51.1086070
  61.6063990   7.9380030  49.5987700  61.9254090   7.1470940  66.3613920
  61.1599760   7.7155940  66.2768590  62.1070050   6.8547150  65.4682150
  65.0142500   7.5234170  50.9866680  64.4652600   7.9703470  51.6309420
  65.6361760   7.0183420  51.5104350  69.0677440   8.8776270  66.9188940
  69.8086910   9.2152030  66.4156400  68.3050120   9.0468330  66.3658710
  56.9039230   3.8829540  67.7228470  56.9444570   3.5843410  68.6313700
  57.7584730   4.2837150  67.5635990  60.6817620   6.4825090  52.8831980
  61.1034040   6.3164960  53.7263370  60.8068460   5.6725320  52.3887120
  58.8445040   2.4621640  65.6902960  58.3141500   1.9712590  65.0626300
  59.5133110   2.8905840  65.1560890  63.1945260   5.5062700  50.1309080
  63.7150920   4.7911720  49.7650230  63.8413660   6.1448570  50.4309590
  67.7423100   6.9291100  65.4544150  68.1564120   7.0836180  66.3034570
  66.8074100   7.0546320  65.6169930  68.2145270   4.2687260  67.4583300
  68.7966040   3.5139580  67.3703780  68.3907040   4.7994700  66.6814780
  62.5038330   6.8811580  63.4240080  62.9226440   7.7244310  63.2516320
  61.5846960   7.0183620  63.1946860  64.8402230   4.6127760  64.8077920
  64.9598440   4.0168900  65.5472760  65.6996230   4.6497450  64.3879220
  67.1790130   5.1664950  63.3840430  66.6525350   5.6907570  62.7805570
  67.5221470   5.7992340  64.0150160  59.5776520   2.5558320  49.8290140
  59.3765580   1.6925680  50.1903480  59.4068570   2.4691680  48.8911740
  60.3545750  13.1864590  64.5397810  59.8166840  13.9110650  64.2206510
  60.6079710  12.7094930  63.7495150  63.2107960  14.4215800  64.7984460
  63.1366660  15.3250940  65.1056830  62.3086800  14.1027700  64.7706530
  63.7593290  13.5874310  52.4210820  64.6544080  13.9259280  52.4429580
  63.7910920  12.8653720  51.7935100  57.3989450   8.9601360  50.6497820
  57.8364320   9.5031030  51.3055400  57.8837180   8.1348310  50.6594160
  54.6135250  11.7490390  58.1018080  54.9438260  10.8811450  57.8696720
  55.0426250  11.9548910  58.9323040  59.2097170  10.0799400  55.7620050
  58.9092710   9.9564370  56.6623960  59.1034660   9.2207990  55.3535780
  55.1025460  12.6160980  60.8399710  54.6656450  12.7961780  61.6723860
  55.6703140  13.3735600  60.6981430  70.7387640  12.1177980  65.1277020
  70.1389630  12.1770540  64.3840940  70.8681540  11.1782960  65.2573870
  71.9789090   9.8595800  50.4646730  71.1482050   9.9272450  50.9353960
  72.1560920  10.7499920  50.1613590  71.4345550   6.6043280  52.9680930
  72.1964460   7.1739930  53.0740620  71.4499920   6.0370480  53.7389240
  54.9349890   5.1281210  57.1988590  54.2798730   4.8592850  56.5548290
  55.7727840   5.0185690  56.7490570  72.4405520   7.4593380  57.8122860
  72.8114350   6.6760700  57.4058830  73.0807450   8.1482480  57.6340160
  69.4239280   8.8429960  63.2253180  68.6099120   9.2727120  63.4878970
  69.8313480   9.4548370  62.6122230  71.4864720   6.8977650  50.1253450
  71.7613560   7.8056530  49.9972670  71.2975460   6.8340180  51.0615440
  71.3830060   4.8346640  55.1182880  71.0073660   4.0674570  54.6864170
  70.6533180   5.2169340  55.6057810  55.9725820   5.5133780  61.7391930
  56.3398860   5.4261180  62.6187950  55.4036640   4.7500330  61.6398790
  70.7729680   3.9818160  64.7522400  70.5415770   3.7530910  63.8520350
  71.0334230   4.9017710  64.7067290  55.5241820   2.4242870  65.6450350
  54.6297870   2.3909630  65.9844060  56.0639370   2.6229660  66.4101600
  54.1487970   2.3380140  53.1413920  53.2452050   2.6010340  52.9665580
  54.6328590   2.6091310  52.3613880  70.6581020   3.0604130  58.4190120
  71.1818500   2.5666780  57.7880290  71.2440440   3.1954490  59.1637690
  70.8370740   3.1444000  61.9409670  69.8873450   3.1107540  62.0554660
  71.0183750   4.0544110  61.7059440  70.1480990   2.3177480  54.3582530
  70.6440110   2.0848350  55.1431410  69.9497060   1.4789320  53.9420170
  69.4815330  13.5948560  56.7521450  70.0774400  13.2733130  56.0755870
  69.7393480  13.1220380  57.5434720  57.3877900  10.0266470  66.9012080
  57.3447530   9.6559380  67.7826540  57.5188910  10.9644040  67.0413900
  61.0883930  11.5826060  62.5021800  60.8475290  11.8500620  61.6152320
  62.0286570  11.7531790  62.5572660  72.3488090  13.6020440  63.3032440
  71.8546370  13.9989310  62.5859570  71.7401380  12.9769650  63.6969720
  57.2265930  12.9728720  64.0209860  56.6326250  12.8413420  64.7599900
  57.2189770  12.1366860  63.5551960  70.0327540  14.2443860  60.5819180
  69.5730510  14.9959670  60.2077200  69.4040000  13.5250330  60.5233980
  56.8578160  10.3387100  62.9717900  56.1312220   9.7192390  62.9043850
  56.9187310  10.7327710  62.1015980  60.4623260  12.5532100  59.7567310
  60.9788280  11.9419460  59.2315570  61.1120640  13.0560880  60.2478320
  63.2018760  13.4440590  60.5836290  63.4896570  13.1894890  59.7069300
  63.7141980  12.8917950  61.1741860  55.1408160  13.6561490  56.1814660
  54.9730200  13.0232170  56.8796550  54.2742670  13.8620890  55.8308850
  56.7470860  12.3494720  53.6264800  56.2218480  12.7302750  52.9226760
  56.6715440  12.9745490  54.3474510  63.2691120  14.3656690  67.9504490
  64.1958430  14.1300960  67.9940450  63.2541550  15.1928690  67.4690520
  71.5036180  13.9082260  54.9478740  71.6788370  13.2220000  54.3039660
  70.8057750  14.4329310  54.5555410  59.3463830  14.2977100  52.5014050
  60.0782650  14.0136380  51.9537940  59.6057500  14.0590380  53.3913430
  58.5078620  10.4141830  52.5060380  57.8787500  10.8826930  53.0546210
  58.6226450   9.5691050  52.9406570  69.8368680  13.5926550  67.7745530
  70.6294000  13.0975780  67.5671490  70.1301830  14.2716690  68.3821140
  65.9628340   4.4647490  38.6561580  65.8822390   3.5502100  38.3853290
  65.5492760   4.9614560  37.9501290  64.0946380   6.2426510  40.5370850
  63.3188480   5.7626950  40.8269420  64.7459310   5.5632160  40.3627010
  58.1112210   6.5546320  41.4146610  57.2797090   6.2995030  41.8143120
  58.7193190   6.6257090  42.1504530  68.1153810  10.6486700  39.3169980
  67.6535340   9.8773940  39.6457150  68.9279360  10.6752770  39.8222430
  58.0913470  10.5886410  41.6104630  58.3941510   9.6984150  41.4314850
  58.8357060  11.1456630  41.3826880  54.4837170   4.1153860  41.0828700
  55.0553280   3.3476060  41.0832340  54.4838710   4.4142620  40.1735310
  64.3417120  12.9344710  38.9373970  63.7228560  13.3902210  38.3668410
  65.1968900  13.0896170  38.5363670  63.5355370   8.9183700  40.5441010
  63.4663650   7.9773640  40.3830140  64.2975230   9.0085110  41.1163580
  60.5373280   3.0666080  40.5652560  61.0451500   3.5647050  41.2057580
  61.0686520   2.2901280  40.3891920  65.2080470   7.8183950  36.3305880
  64.5897740   8.2833400  35.7668600  65.7203720   8.5111430  36.7475390
  60.0712230   7.3459820  43.0089480  59.7381610   7.9728740  43.6510550
  60.2478910   7.8721700  42.2291150  59.2831330   9.3140620  44.8238660
  59.9005330   9.9891700  44.5423110  58.4224450   9.7228600  44.7326160
  54.5763670   8.5040480  33.7045510  54.1991650   8.9927580  32.9730410
  54.8336740   9.1765760  34.3352040  70.2008920  10.7780030  42.7393300
  69.5172440  11.4479140  42.7309970  70.7403210  10.9760680  41.9738160
  67.7367660  12.6224160  41.4538480  67.7494820  12.2186450  40.5860740
  67.1842880  13.3971450  41.3499910  69.0313080   9.3440380  36.5428650
  68.9209410   8.4014710  36.6678070  69.0281330   9.7056020  37.4291410
  67.1353100   7.5254000  42.7821090  67.5521890   7.3114110  41.9474550
  67.8592920   7.7826790  43.3529710  64.5733360   4.9705700  35.8991140
  63.6462640   4.9043080  36.1279610  64.7258180   5.9085830  35.7846380
  71.0815200   5.9241220  42.8737330  70.2533830   5.9934310  42.3987460
  71.6765680   6.5095530  42.4053160  68.6030650   6.5326000  36.4026390
  67.9843070   6.1945550  35.7552690  68.5855100   5.8885760  37.1105580
  68.0457210   2.7110540  43.8192200  67.6328390   3.5364250  44.0732190
  67.3133160   2.1255580  43.6268560  60.1790000   5.4970440  38.6810870
  59.7747000   4.7847690  38.1856770  60.2653120   5.1523680  39.5698910
  60.6471700   9.1838000  40.8450080  60.3499990   8.5783470  40.1657860
  61.5971520   9.2215310  40.7339440  58.8918620   2.2713650  42.4609910
  59.4433210   2.3808990  41.6863160  59.4062130   2.6451250  43.1765140
  68.7357310  12.7569870  44.5073180  68.2587870  13.5642060  44.3145790
  68.0519100  12.1048200  44.6599390  59.7390130   8.9219690  47.4957880
  58.8418660   9.1459660  47.7431280  59.7643000   9.0454630  46.5469280
  66.7795350   5.7712810  33.4099140  67.2188630   4.9335240  33.2636960
  67.4923770   6.4042210  33.4963280  58.5661350   5.7933010  46.0715250
  58.4269120   6.6655810  46.4402650  57.6842710   5.4505820  45.9263190
  64.8890730  10.7108880  37.3780380  65.3286640  11.4533210  36.9635770
  64.8277620  10.9535450  38.3019340  60.3641700  11.7354710  48.2800400
  60.3357130  12.1397660  47.4128830  60.2006670  10.8065070  48.1172000
  56.8794630   4.3915420  36.1817520  56.7592230   5.1177510  35.5698790
  56.5695520   3.6218330  35.7045430  72.3156520  12.5181810  49.5764570
  72.7916240  12.9964700  50.2553650  72.9363680  12.4499300  48.8510070
  54.5180000   7.5630560  41.9886160  54.5960420   7.6979330  41.0441880
  55.1321680   6.8546450  42.1814280  55.7627630   9.2630750  38.3992340
  55.3555710   9.4045340  37.5445940  56.6540640   8.9790910  38.1963550
  71.7189770   9.7094660  46.7364580  71.8452830   9.4706540  45.8181760
  71.7611150   8.8779200  47.2086660  65.5806510  13.4122660  45.3059390
  66.0951180  13.3230670  46.1081820  64.7375590  13.7582360  45.5987300
  67.5560910  13.6978000  34.7343390  67.3962050  13.4080940  35.6325220
  67.3907620  12.9218130  34.1988620  60.0349290  13.4776530  36.5115010
  59.8591770  12.5612070  36.2982810  59.1805030  13.8363820  36.7512810
  67.2587040  11.2065560  33.2941390  66.5652200  11.2042850  32.6343670
  68.0009900  10.7824880  32.8635560  66.8236970  12.8328270  37.3689880
  67.2793920  12.0517650  37.6828500  67.1629490  13.5435090  37.9131060
  54.5739520   8.6044730  44.5280620  54.7370560   8.1350090  43.7099990
  55.0391970   8.0968290  45.1929460  68.6332610   1.8227960  46.2973170
  67.7826200   1.5233710  46.6182240  68.4734400   2.0669970  45.3856990
  65.7282320   3.3229710  48.3971960  66.0535730   2.4893460  48.0574190
  66.5162650   3.8458230  48.5450290  59.1372510   2.8584060  37.2922440
  58.9113430   2.6421230  38.1969060  58.3565040   3.2912520  36.9468410
  66.3670270   2.8647430  35.8913090  65.7679160   3.5883230  35.7076710
  66.9149880   2.8024210  35.1089540  61.5771720   3.7569640  47.9582710
  61.4815320   2.8164370  47.8083110  62.4203700   3.9784710  47.5630780
  54.1969540   2.0331890  31.3549290  54.1144210   2.9762650  31.4964280
  53.8452600   1.8906800  30.4761640  65.5590280   4.0916720  42.0167150
  64.8271400   4.6003530  42.3657250  65.1614620   3.2746700  41.7155930
  62.0587820   1.7683000  33.4126400  62.1800640   1.7269480  34.3612220
  61.6736330   2.6307150  33.2573130  61.0709320   4.0784140  32.8109700
  60.5026220   3.6302390  32.1845610  61.7798320   4.4376920  32.2774850
  56.1478500   7.9796160  46.6876430  55.7633290   7.3389830  47.2859390
  56.4590690   8.6832280  47.2571160  62.2975640   4.8272700  42.1685050
  62.6645770   4.3531270  42.9146390  62.1080700   5.7014270  42.5093390
  60.0875010   3.8681340  44.4869260  59.7832080   4.7473320  44.7119620
  61.0421470   3.9281130  44.5226700  58.6156800   8.0742330  35.0836110
  57.8419060   7.5339950  34.9234830  59.3451430   7.5548940  34.7453870
  69.3744780   7.0707690  40.8762500  70.0943900   7.5662980  40.4858610
  69.1726600   6.3925580  40.2316370  64.7563580   7.1416750  46.7631500
  64.6900890   6.2212420  46.5089090  64.1268720   7.2392190  47.4776140
  67.5503110   2.8365300  33.3154050  68.4382730   3.1482530  33.1405390
  67.5208200   1.9637550  32.9234630  58.6594200   7.7422710  38.7214920
  59.1772870   6.9390970  38.6671810  58.2078220   7.6801850  39.5631750
  63.5463700   9.0088990  33.9942220  63.8879400   9.7531220  33.4985540
  62.7176410   9.3220110  34.3567050  56.1438740   4.7084080  45.6340620
  55.7853680   5.3737930  46.2213960  55.8493300   3.8767630  46.0053240
  59.3451860   5.1668320  48.5180170  59.0452000   5.3125500  47.6207990
  60.1163100   4.6073610  48.4253560  64.6880310   9.9637320  46.5135300
  64.7024850   9.0318280  46.2954210  63.9805410  10.0497080  47.1525070
  69.8217380   4.1477140  32.7833910  69.7381100   4.5791360  31.9330350
  70.5411570   4.6075490  33.2160730  70.8991520   6.6044660  45.8603880
  70.1739710   7.1973440  45.6633270  71.4266980   6.5968200  45.0617250
  70.8504630  11.0019400  35.5116040  70.2080790  10.3475020  35.7859760
  70.4635290  11.4074490  34.7356710  66.4291110   8.3304830  39.3587730
  66.7814930   7.7332960  38.6989100  65.5453440   8.0049060  39.5295980
  62.5154390   9.0902520  36.7658140  63.2025520   9.6371730  37.1465730
  61.7286810   9.6343250  36.8007750  54.6546790   4.7075340  32.2575220
  55.5241640   4.9900140  32.5411140  54.1637110   5.5211210  32.1424030
  61.8181600   6.0948550  36.3783500  62.2744380   6.9053800  36.6043690
  61.4669810   5.7771690  37.2101990  64.1214210  11.6054890  43.6075800
  64.7656430  11.8114270  44.2849220  64.4843650  10.8443290  43.1546650
  65.3946290   9.6087240  42.3253250  66.0368520   8.9080400  42.4385420
  65.9195640  10.3885680  42.1450140  69.2402010   9.8935860  32.0492390
  69.0139590   9.1766300  32.6417030  68.8498210   9.6448300  31.2114140
  67.1683910  10.4082140  45.5289310  67.5040150  10.9948830  46.2067230
  66.2484250  10.2774850  45.7587100  55.0218040  13.9202720  32.8236850
  55.3815680  14.5192060  32.1694120  54.8810380  14.4662610  33.5971880
  68.8218260   7.8107800  33.7106550  68.5339960   8.2720490  34.4984430
  69.6170430   7.3505570  33.9790770  55.0059900  12.1857580  47.2979250
  55.1151020  11.2452320  47.1574640  54.3540460  12.4512330  46.6492980
  62.9972490  10.4573470  48.6977370  62.6769360   9.7382710  49.2423060
  62.3230850  11.1328540  48.7713430  61.0386660  11.3033920  33.6410520
  61.0296760  12.0363610  33.0255030  60.1185020  11.0565500  33.7337480
  56.6393300   6.5248810  34.3857280  56.0321250   7.2647710  34.3952580
  57.1142650   6.6148170  33.5595480  64.0246260  11.3662160  32.3035710
  64.1258240  11.1626150  31.3737690  63.1248000  11.1120440  32.5083490
  63.1728080   3.3439220  44.2852140  63.6713330   3.8185040  44.9503990
  63.3151030   2.4202740  44.4922170  62.6664370  13.8848480  36.9983380
  62.9205870  13.8469870  36.0762750  61.7176850  13.7581810  36.9911630
  68.6716950   4.8040360  38.5741890  67.7307090   4.8190590  38.7489580
  68.9861020   4.0176320  39.0202190  58.6498590   6.4859960  32.1345850
  59.4161860   6.3741320  32.6971280  58.7273280   5.7897930  31.4822620
  57.3445350   3.9185030  32.8178740  57.4248940   2.9712540  32.9296140
  58.2365100   4.2491910  32.9239400  70.6742530  11.9749210  40.2496150
  70.7989950  12.7980380  40.7219960  71.5408090  11.7639940  39.9020300
  58.1460060  14.0680420  39.9213280  58.8822540  13.5195880  40.1921850
  58.5300980  14.9336430  39.7819270  55.0305540  10.1353990  35.7954790
  54.1045320  10.3775130  35.7860200  55.4961970  10.9628250  35.6739540
  57.1518340  13.2526490  49.1098860  57.9531070  13.5738540  49.5234260
  56.6370160  12.8922070  49.8318770  61.2562370  13.2410730  31.7438850
  62.0490980  13.5299560  31.2920640  60.7366720  12.8102900  31.0651330
  65.9882970   9.3606360  49.0574270  65.3821130   9.3837960  48.3170020
  65.6837080   8.6289400  49.5941520  67.4183340  13.0886650  47.6683680
  68.3705090  13.0044670  47.6183920  67.2711560  13.7528360  48.3417470
  70.3092540  12.4680860  33.1675590  70.0234050  12.0546000  32.3529770
  70.1112090  13.3968570  33.0476110  54.8716150   5.7399950  48.0534910
  55.3755170   5.1607230  48.6251140  54.1323570   6.0240180  48.5911280
  61.7739770   8.4614140  31.6081200  61.6690410   7.8466490  32.3342580
  61.6063990   7.9380030  30.8244210  61.9254090   7.1470940  47.5870430
  61.1599760   7.7155940  47.5025100  62.1070050   6.8547150  46.6938660
  65.0142500   7.5234170  32.2123190  64.4652600   7.9703470  32.8565930
  65.6361760   7.0183420  32.7360860  69.0677440   8.8776270  48.1445450
  69.8086910   9.2152030  47.6412910  68.3050120   9.0468330  47.5915220
  56.9039230   3.8829540  48.9484980  56.9444570   3.5843410  49.8570210
  57.7584730   4.2837150  48.7892500  60.6817620   6.4825090  34.1088490
  61.1034040   6.3164960  34.9519880  60.8068460   5.6725320  33.6143630
  58.8445040   2.4621640  46.9159470  58.3141500   1.9712590  46.2882810
  59.5133110   2.8905840  46.3817400  63.1945260   5.5062700  31.3565590
  63.7150920   4.7911720  30.9906740  63.8413660   6.1448570  31.6566100
  67.7423100   6.9291100  46.6800660  68.1564120   7.0836180  47.5291080
  66.8074100   7.0546320  46.8426440  68.2145270   4.2687260  48.6839810
  68.7966040   3.5139580  48.5960290  68.3907040   4.7994700  47.9071290
  62.5038330   6.8811580  44.6496590  62.9226440   7.7244310  44.4772830
  61.5846960   7.0183620  44.4203370  64.8402230   4.6127760  46.0334430
  64.9598440   4.0168900  46.7729270  65.6996230   4.6497450  45.6135730
  67.1790130   5.1664950  44.6096940  66.6525350   5.6907570  44.0062080
  67.5221470   5.7992340  45.2406670  59.5776520   2.5558320  31.0546650
  59.3765580   1.6925680  31.4159990  59.4068570   2.4691680  30.1168250
  60.3545750  13.1864590  45.7654320  59.8166840  13.9110650  45.4463020
  60.6079710  12.7094930  44.9751660  63.7593290  13.5874310  33.6467330
  64.6544080  13.9259280  33.6686090  63.7910920  12.8653720  33.0191610
  57.3989450   8.9601360  31.8754330  57.8364320   9.5031030  32.5311910
  57.8837180   8.1348310  31.8850670  54.6135250  11.7490390  39.3274590
  54.9438260  10.8811450  39.0953230  55.0426250  11.9548910  40.1579550
  59.2097170  10.0799400  36.9876560  58.9092710   9.9564370  37.8880470
  59.1034660   9.2207990  36.5792290  55.1025460  12.6160980  42.0656220
  54.6656450  12.7961780  42.8980370  55.6703140  13.3735600  41.9237940
  70.7387640  12.1177980  46.3533530  70.1389630  12.1770540  45.6097450
  70.8681540  11.1782960  46.4830380  71.9789090   9.8595800  31.6903240
  71.1482050   9.9272450  32.1610470  72.1560920  10.7499920  31.3870100
  71.4345550   6.6043280  34.1937440  72.1964460   7.1739930  34.2997130
  71.4499920   6.0370480  34.9645750  54.9349890   5.1281210  38.4245100
  54.2798730   4.8592850  37.7804800  55.7727840   5.0185690  37.9747080
  72.4405520   7.4593380  39.0379370  72.8114350   6.6760700  38.6315340
  73.0807450   8.1482480  38.8596670  69.4239280   8.8429960  44.4509690
  68.6099120   9.2727120  44.7135480  69.8313480   9.4548370  43.8378740
  71.4864720   6.8977650  31.3509960  71.7613560   7.8056530  31.2229180
  71.2975460   6.8340180  32.2871950  71.3830060   4.8346640  36.3439390
  71.0073660   4.0674570  35.9120680  70.6533180   5.2169340  36.8314320
  55.9725820   5.5133780  42.9648440  56.3398860   5.4261180  43.8444460
  55.4036640   4.7500330  42.8655300  70.7729680   3.9818160  45.9778910
  70.5415770   3.7530910  45.0776860  71.0334230   4.9017710  45.9323800
  55.5241820   2.4242870  46.8706860  54.6297870   2.3909630  47.2100570
  56.0639370   2.6229660  47.6358110  54.1487970   2.3380140  34.3670430
  53.2452050   2.6010340  34.1922090  54.6328590   2.6091310  33.5870390
  70.6581020   3.0604130  39.6446630  71.1818500   2.5666780  39.0136800
  71.2440440   3.1954490  40.3894200  70.8370740   3.1444000  43.1666180
  69.8873450   3.1107540  43.2811170  71.0183750   4.0544110  42.9315950
  70.1480990   2.3177480  35.5839040  70.6440110   2.0848350  36.3687920
  69.9497060   1.4789320  35.1676680  69.4815330  13.5948560  37.9777960
  70.0774400  13.2733130  37.3012380  69.7393480  13.1220380  38.7691230
  57.3877900  10.0266470  48.1268590  57.3447530   9.6559380  49.0083050
  57.5188910  10.9644040  48.2670410  61.0883930  11.5826060  43.7278310
  60.8475290  11.8500620  42.8408830  62.0286570  11.7531790  43.7829170
  72.3488090  13.6020440  44.5288950  71.8546370  13.9989310  43.8116080
  71.7401380  12.9769650  44.9226230  57.2265930  12.9728720  45.2466370
  56.6326250  12.8413420  45.9856410  57.2189770  12.1366860  44.7808470
  70.0327540  14.2443860  41.8075690  69.5730510  14.9959670  41.4333710
  69.4040000  13.5250330  41.7490490  56.8578160  10.3387100  44.1974410
  56.1312220   9.7192390  44.1300360  56.9187310  10.7327710  43.3272490
  60.4623260  12.5532100  40.9823820  60.9788280  11.9419460  40.4572080
  61.1120640  13.0560880  41.4734830  63.2018760  13.4440590  41.8092800
  63.4896570  13.1894890  40.9325810  63.7141980  12.8917950  42.3998370
  55.1408160  13.6561490  37.4071170  54.9730200  13.0232170  38.1053060
  54.2742670  13.8620890  37.0565360  56.7470860  12.3494720  34.8521310
  56.2218480  12.7302750  34.1483270  56.6715440  12.9745490  35.5731020
  63.2691120  14.3656690  49.1761000  64.1958430  14.1300960  49.2196960
  63.2541550  15.1928690  48.6947030  71.5036180  13.9082260  36.1735250
  71.6788370  13.2220000  35.5296170  70.8057750  14.4329310  35.7811920
  59.3463830  14.2977100  33.7270560  60.0782650  14.0136380  33.1794450
  59.6057500  14.0590380  34.6169940  58.5078620  10.4141830  33.7316890
  57.8787500  10.8826930  34.2802720  58.6226450   9.5691050  34.1663080
  69.8368680  13.5926550  49.0002040  70.6294000  13.0975780  48.7928000
  70.1301830  14.2716690  49.6077650  65.9628340   4.4647490  19.8818090
  65.8822390   3.5502100  19.6109800  65.5492760   4.9614560  19.1757800
  64.0946380   6.2426510  21.7627360  63.3188480   5.7626950  22.0525930
  64.7459310   5.5632160  21.5883520  58.1112210   6.5546320  22.6403120
  57.2797090   6.2995030  23.0399630  58.7193190   6.6257090  23.3761040
  68.1153810  10.6486700  20.5426490  67.6535340   9.8773940  20.8713660
  68.9279360  10.6752770  21.0478940  58.0913470  10.5886410  22.8361140
  58.3941510   9.6984150  22.6571360  58.8357060  11.1456630  22.6083390
  54.4837170   4.1153860  22.3085210  55.0553280   3.3476060  22.3088850
  54.4838710   4.4142620  21.3991820  64.3417120  12.9344710  20.1630480
  63.7228560  13.3902210  19.5924920  65.1968900  13.0896170  19.7620180
  63.5355370   8.9183700  21.7697520  63.4663650   7.9773640  21.6086650
  64.2975230   9.0085110  22.3420090  60.5373280   3.0666080  21.7909070
  61.0451500   3.5647050  22.4314090  61.0686520   2.2901280  21.6148430
  65.2080470   7.8183950  17.5562390  64.5897740   8.2833400  16.9925110
  65.7203720   8.5111430  17.9731900  60.0712230   7.3459820  24.2345990
  59.7381610   7.9728740  24.8767060  60.2478910   7.8721700  23.4547660
  59.2831330   9.3140620  26.0495170  59.9005330   9.9891700  25.7679620
  58.4224450   9.7228600  25.9582670  54.5763670   8.5040480  14.9302020
  54.1991650   8.9927580  14.1986920  54.8336740   9.1765760  15.5608550
  70.2008920  10.7780030  23.9649810  69.5172440  11.4479140  23.9566480
  70.7403210  10.9760680  23.1994670  67.7367660  12.6224160  22.6794990
  67.7494820  12.2186450  21.8117250  67.1842880  13.3971450  22.5756420
  69.0313080   9.3440380  17.7685160  68.9209410   8.4014710  17.8934580
  69.0281330   9.7056020  18.6547920  67.1353100   7.5254000  24.0077600
  67.5521890   7.3114110  23.1731060  67.8592920   7.7826790  24.5786220
  64.5733360   4.9705700  17.1247650  63.6462640   4.9043080  17.3536120
  64.7258180   5.9085830  17.0102890  71.0815200   5.9241220  24.0993840
  70.2533830   5.9934310  23.6243970  71.6765680   6.5095530  23.6309670
  68.6030650   6.5326000  17.6282900  67.9843070   6.1945550  16.9809200
  68.5855100   5.8885760  18.3362090  68.0457210   2.7110540  25.0448710
  67.6328390   3.5364250  25.2988700  67.3133160   2.1255580  24.8525070
  60.1790000   5.4970440  19.9067380  59.7747000   4.7847690  19.4113280
  60.2653120   5.1523680  20.7955420  60.6471700   9.1838000  22.0706590
  60.3499990   8.5783470  21.3914370  61.5971520   9.2215310  21.9595950
  58.8918620   2.2713650  23.6866420  59.4433210   2.3808990  22.9119670
  59.4062130   2.6451250  24.4021650  68.7357310  12.7569870  25.7329690
  68.2587870  13.5642060  25.5402300  68.0519100  12.1048200  25.8855900
  59.7390130   8.9219690  28.7214390  58.8418660   9.1459660  28.9687790
  59.7643000   9.0454630  27.7725790  66.7795350   5.7712810  14.6355650
  67.2188630   4.9335240  14.4893470  67.4923770   6.4042210  14.7219790
  58.5661350   5.7933010  27.2971760  58.4269120   6.6655810  27.6659160
  57.6842710   5.4505820  27.1519700  64.8890730  10.7108880  18.6036890
  65.3286640  11.4533210  18.1892280  64.8277620  10.9535450  19.5275850
  60.3641700  11.7354710  29.5056910  60.3357130  12.1397660  28.6385340
  60.2006670  10.8065070  29.3428510  56.8794630   4.3915420  17.4074030
  56.7592230   5.1177510  16.7955300  56.5695520   3.6218330  16.9301940
  72.3156520  12.5181810  30.8021080  72.7916240  12.9964700  31.4810160
  72.9363680  12.4499300  30.0766580  54.5180000   7.5630560  23.2142670
  54.5960420   7.6979330  22.2698390  55.1321680   6.8546450  23.4070790
  55.7627630   9.2630750  19.6248850  55.3555710   9.4045340  18.7702450
  56.6540640   8.9790910  19.4220060  71.7189770   9.7094660  27.9621090
  71.8452830   9.4706540  27.0438270  71.7611150   8.8779200  28.4343170
  65.5806510  13.4122660  26.5315900  66.0951180  13.3230670  27.3338330
  64.7375590  13.7582360  26.8243810  67.5560910  13.6978000  15.9599900
  67.3962050  13.4080940  16.8581730  67.3907620  12.9218130  15.4245130
  60.0349290  13.4776530  17.7371520  59.8591770  12.5612070  17.5239320
  59.1805030  13.8363820  17.9769320  67.2587040  11.2065560  14.5197900
  66.5652200  11.2042850  13.8600180  68.0009900  10.7824880  14.0892070
  66.8236970  12.8328270  18.5946390  67.2793920  12.0517650  18.9085010
  67.1629490  13.5435090  19.1387570  54.5739520   8.6044730  25.7537130
  54.7370560   8.1350090  24.9356500  55.0391970   8.0968290  26.4185970
  68.6332610   1.8227960  27.5229680  67.7826200   1.5233710  27.8438750
  68.4734400   2.0669970  26.6113500  65.7282320   3.3229710  29.6228470
  66.0535730   2.4893460  29.2830700  66.5162650   3.8458230  29.7706800
  59.1372510   2.8584060  18.5178950  58.9113430   2.6421230  19.4225570
  58.3565040   3.2912520  18.1724920  66.3670270   2.8647430  17.1169600
  65.7679160   3.5883230  16.9333220  66.9149880   2.8024210  16.3346050
  61.5771720   3.7569640  29.1839220  61.4815320   2.8164370  29.0339620
  62.4203700   3.9784710  28.7887290  54.1969540   2.0331890  12.5805800
  54.1144210   2.9762650  12.7220790  53.8452600   1.8906800  11.7018150
  65.5590280   4.0916720  23.2423660  64.8271400   4.6003530  23.5913760
  65.1614620   3.2746700  22.9412440  62.0587820   1.7683000  14.6382910
  62.1800640   1.7269480  15.5868730  61.6736330   2.6307150  14.4829640
  61.0709320   4.0784140  14.0366210  60.5026220   3.6302390  13.4102120
  61.7798320   4.4376920  13.5031360  56.1478500   7.9796160  27.9132940
  55.7633290   7.3389830  28.5115900  56.4590690   8.6832280  28.4827670
  62.2975640   4.8272700  23.3941560  62.6645770   4.3531270  24.1402900
  62.1080700   5.7014270  23.7349900  60.0875010   3.8681340  25.7125770
  59.7832080   4.7473320  25.9376130  61.0421470   3.9281130  25.7483210
  58.6156800   8.0742330  16.3092620  57.8419060   7.5339950  16.1491340
  59.3451430   7.5548940  15.9710380  69.3744780   7.0707690  22.1019010
  70.0943900   7.5662980  21.7115120  69.1726600   6.3925580  21.4572880
  64.7563580   7.1416750  27.9888010  64.6900890   6.2212420  27.7345600
  64.1268720   7.2392190  28.7032650  67.5503110   2.8365300  14.5410560
  68.4382730   3.1482530  14.3661900  67.5208200   1.9637550  14.1491140
  58.6594200   7.7422710  19.9471430  59.1772870   6.9390970  19.8928320
  58.2078220   7.6801850  20.7888260  63.5463700   9.0088990  15.2198730
  63.8879400   9.7531220  14.7242050  62.7176410   9.3220110  15.5823560
  56.1438740   4.7084080  26.8597130  55.7853680   5.3737930  27.4470470
  55.8493300   3.8767630  27.2309750  59.3451860   5.1668320  29.7436680
  59.0452000   5.3125500  28.8464500  60.1163100   4.6073610  29.6510070
  64.6880310   9.9637320  27.7391810  64.7024850   9.0318280  27.5210720
  63.9805410  10.0497080  28.3781580  69.8217380   4.1477140  14.0090420
  69.7381100   4.5791360  13.1586860  70.5411570   4.6075490  14.4417240
  70.8991520   6.6044660  27.0860390  70.1739710   7.1973440  26.8889780
  71.4266980   6.5968200  26.2873760  70.8504630  11.0019400  16.7372550
  70.2080790  10.3475020  17.0116270  70.4635290  11.4074490  15.9613220
  66.4291110   8.3304830  20.5844240  66.7814930   7.7332960  19.9245610
  65.5453440   8.0049060  20.7552490  62.5154390   9.0902520  17.9914650
  63.2025520   9.6371730  18.3722240  61.7286810   9.6343250  18.0264260
  54.6546790   4.7075340  13.4831730  55.5241640   4.9900140  13.7667650
  54.1637110   5.5211210  13.3680540  61.8181600   6.0948550  17.6040010
  62.2744380   6.9053800  17.8300200  61.4669810   5.7771690  18.4358500
  64.1214210  11.6054890  24.8332310  64.7656430  11.8114270  25.5105730
  64.4843650  10.8443290  24.3803160  65.3946290   9.6087240  23.5509760
  66.0368520   8.9080400  23.6641930  65.9195640  10.3885680  23.3706650
  69.2402010   9.8935860  13.2748900  69.0139590   9.1766300  13.8673540
  68.8498210   9.6448300  12.4370650  67.1683910  10.4082140  26.7545820
  67.5040150  10.9948830  27.4323740  66.2484250  10.2774850  26.9843610
  55.0218040  13.9202720  14.0493360  55.3815680  14.5192060  13.3950630
  54.8810380  14.4662610  14.8228390  68.8218260   7.8107800  14.9363060
  68.5339960   8.2720490  15.7240940  69.6170430   7.3505570  15.2047280
  55.0059900  12.1857580  28.5235760  55.1151020  11.2452320  28.3831150
  54.3540460  12.4512330  27.8749490  62.9972490  10.4573470  29.9233880
  62.6769360   9.7382710  30.4679570  62.3230850  11.1328540  29.9969940
  61.0386660  11.3033920  14.8667030  61.0296760  12.0363610  14.2511540
  60.1185020  11.0565500  14.9593990  56.6393300   6.5248810  15.6113790
  56.0321250   7.2647710  15.6209090  57.1142650   6.6148170  14.7851990
  64.0246260  11.3662160  13.5292220  64.1258240  11.1626150  12.5994200
  63.1248000  11.1120440  13.7340000  63.1728080   3.3439220  25.5108650
  63.6713330   3.8185040  26.1760500  63.3151030   2.4202740  25.7178680
  62.6664370  13.8848480  18.2239890  62.9205870  13.8469870  17.3019260
  61.7176850  13.7581810  18.2168140  68.6716950   4.8040360  19.7998400
  67.7307090   4.8190590  19.9746090  68.9861020   4.0176320  20.2458700
  58.6498590   6.4859960  13.3602360  59.4161860   6.3741320  13.9227790
  58.7273280   5.7897930  12.7079130  57.3445350   3.9185030  14.0435250
  57.4248940   2.9712540  14.1552650  58.2365100   4.2491910  14.1495910
  70.6742530  11.9749210  21.4752660  70.7989950  12.7980380  21.9476470
  71.5408090  11.7639940  21.1276810  58.1460060  14.0680420  21.1469790
  58.8822540  13.5195880  21.4178360  58.5300980  14.9336430  21.0075780
  55.0305540  10.1353990  17.0211300  54.1045320  10.3775130  17.0116710
  55.4961970  10.9628250  16.8996050  57.1518340  13.2526490  30.3355370
  57.9531070  13.5738540  30.7490770  56.6370160  12.8922070  31.0575280
  61.2562370  13.2410730  12.9695360  62.0490980  13.5299560  12.5177150
  60.7366720  12.8102900  12.2907840  65.9882970   9.3606360  30.2830780
  65.3821130   9.3837960  29.5426530  65.6837080   8.6289400  30.8198030
  67.4183340  13.0886650  28.8940190  68.3705090  13.0044670  28.8440430
  67.2711560  13.7528360  29.5673980  70.3092540  12.4680860  14.3932100
  70.0234050  12.0546000  13.5786280  70.1112090  13.3968570  14.2732620
  54.8716150   5.7399950  29.2791420  55.3755170   5.1607230  29.8507650
  54.1323570   6.0240180  29.8167790  61.7739770   8.4614140  12.8337710
  61.6690410   7.8466490  13.5599090  61.6063990   7.9380030  12.0500720
  61.9254090   7.1470940  28.8126940  61.1599760   7.7155940  28.7281610
  62.1070050   6.8547150  27.9195170  65.0142500   7.5234170  13.4379700
  64.4652600   7.9703470  14.0822440  65.6361760   7.0183420  13.9617370
  69.0677440   8.8776270  29.3701960  69.8086910   9.2152030  28.8669420
  68.3050120   9.0468330  28.8171730  56.9039230   3.8829540  30.1741490
  56.9444570   3.5843410  31.0826720  57.7584730   4.2837150  30.0149010
  60.6817620   6.4825090  15.3345000  61.1034040   6.3164960  16.1776390
  60.8068460   5.6725320  14.8400140  58.8445040   2.4621640  28.1415980
  58.3141500   1.9712590  27.5139320  59.5133110   2.8905840  27.6073910
  63.1945260   5.5062700  12.5822100  63.7150920   4.7911720  12.2163250
  63.8413660   6.1448570  12.8822610  67.7423100   6.9291100  27.9057170
  68.1564120   7.0836180  28.7547590  66.8074100   7.0546320  28.0682950
  68.2145270   4.2687260  29.9096320  68.7966040   3.5139580  29.8216800
  68.3907040   4.7994700  29.1327800  62.5038330   6.8811580  25.8753100
  62.9226440   7.7244310  25.7029340  61.5846960   7.0183620  25.6459880
  64.8402230   4.6127760  27.2590940  64.9598440   4.0168900  27.9985780
  65.6996230   4.6497450  26.8392240  67.1790130   5.1664950  25.8353450
  66.6525350   5.6907570  25.2318590  67.5221470   5.7992340  26.4663180
  59.5776520   2.5558320  12.2803160  59.3765580   1.6925680  12.6416500
  59.4068570   2.4691680  11.3424760  60.3545750  13.1864590  26.9910830
  59.8166840  13.9110650  26.6719530  60.6079710  12.7094930  26.2008170
  63.2107960  14.4215800  27.2497480  63.1366660  15.3250940  27.5569850
  62.3086800  14.1027700  27.2219550  63.7593290  13.5874310  14.8723840
  64.6544080  13.9259280  14.8942600  63.7910920  12.8653720  14.2448120
  57.3989450   8.9601360  13.1010840  57.8364320   9.5031030  13.7568420
  57.8837180   8.1348310  13.1107180  54.6135250  11.7490390  20.5531100
  54.9438260  10.8811450  20.3209740  55.0426250  11.9548910  21.3836060
  59.2097170  10.0799400  18.2133070  58.9092710   9.9564370  19.1136980
  59.1034660   9.2207990  17.8048800  55.1025460  12.6160980  23.2912730
  54.6656450  12.7961780  24.1236880  55.6703140  13.3735600  23.1494450
  70.7387640  12.1177980  27.5790040  70.1389630  12.1770540  26.8353960
  70.8681540  11.1782960  27.7086890  71.9789090   9.8595800  12.9159750
  71.1482050   9.9272450  13.3866980  72.1560920  10.7499920  12.6126610
  71.4345550   6.6043280  15.4193950  72.1964460   7.1739930  15.5253640
  71.4499920   6.0370480  16.1902260  54.9349890   5.1281210  19.6501610
  54.2798730   4.8592850  19.0061310  55.7727840   5.0185690  19.2003590
  72.4405520   7.4593380  20.2635880  72.8114350   6.6760700  19.8571850
  73.0807450   8.1482480  20.0853180  69.4239280   8.8429960  25.6766200
  68.6099120   9.2727120  25.9391990  69.8313480   9.4548370  25.0635250
  71.4864720   6.8977650  12.5766470  71.7613560   7.8056530  12.4485690
  71.2975460   6.8340180  13.5128460  71.3830060   4.8346640  17.5695900
  71.0073660   4.0674570  17.1377190  70.6533180   5.2169340  18.0570830
  55.9725820   5.5133780  24.1904950  56.3398860   5.4261180  25.0700970
  55.4036640   4.7500330  24.0911810  70.7729680   3.9818160  27.2035420
  70.5415770   3.7530910  26.3033370  71.0334230   4.9017710  27.1580310
  55.5241820   2.4242870  28.0963370  54.6297870   2.3909630  28.4357080
  56.0639370   2.6229660  28.8614620  54.1487970   2.3380140  15.5926940
  53.2452050   2.6010340  15.4178600  54.6328590   2.6091310  14.8126900
  70.6581020   3.0604130  20.8703140  71.1818500   2.5666780  20.2393310
  71.2440440   3.1954490  21.6150710  70.8370740   3.1444000  24.3922690
  69.8873450   3.1107540  24.5067680  71.0183750   4.0544110  24.1572460
  70.1480990   2.3177480  16.8095550  70.6440110   2.0848350  17.5944430
  69.9497060   1.4789320  16.3933190  69.4815330  13.5948560  19.2034470
  70.0774400  13.2733130  18.5268890  69.7393480  13.1220380  19.9947740
  57.3877900  10.0266470  29.3525100  57.3447530   9.6559380  30.2339560
  57.5188910  10.9644040  29.4926920  61.0883930  11.5826060  24.9534820
  60.8475290  11.8500620  24.0665340  62.0286570  11.7531790  25.0085680
  72.3488090  13.6020440  25.7545460  71.8546370  13.9989310  25.0372590
  71.7401380  12.9769650  26.1482740  57.2265930  12.9728720  26.4722880
  56.6326250  12.8413420  27.2112920  57.2189770  12.1366860  26.0064980
  70.0327540  14.2443860  23.0332200  69.5730510  14.9959670  22.6590220
  69.4040000  13.5250330  22.9747000  56.8578160  10.3387100  25.4230920
  56.1312220   9.7192390  25.3556870  56.9187310  10.7327710  24.5529000
  60.4623260  12.5532100  22.2080330  60.9788280  11.9419460  21.6828590
  61.1120640  13.0560880  22.6991340  63.2018760  13.4440590  23.0349310
  63.4896570  13.1894890  22.1582320  63.7141980  12.8917950  23.6254880
  55.1408160  13.6561490  18.6327680  54.9730200  13.0232170  19.3309570
  54.2742670  13.8620890  18.2821870  56.7470860  12.3494720  16.0777820
  56.2218480  12.7302750  15.3739780  56.6715440  12.9745490  16.7987530
  63.2691120  14.3656690  30.4017510  64.1958430  14.1300960  30.4453470
  63.2541550  15.1928690  29.9203540  71.5036180  13.9082260  17.3991760
  71.6788370  13.2220000  16.7552680  70.8057750  14.4329310  17.0068430
  59.3463830  14.2977100  14.9527070  60.0782650  14.0136380  14.4050960
  59.6057500  14.0590380  15.8426450  58.5078620  10.4141830  14.9573400
  57.8787500  10.8826930  15.5059230  58.6226450   9.5691050  15.3919590
  69.8368680  13.5926550  30.2258550  70.6294000  13.0975780  30.0184510
  70.1301830  14.2716690  30.8334160  64.0946380   6.2426510   2.9883870
  63.3188480   5.7626950   3.2782440  64.7459310   5.5632160   2.8140030
  58.1112210   6.5546320   3.8659630  57.2797090   6.2995030   4.2656140
  58.7193190   6.6257090   4.6017550  68.1153810  10.6486700   1.7683000
  67.6535340   9.8773940   2.0970170  68.9279360  10.6752770   2.2735450
  58.0913470  10.5886410   4.0617650  58.3941510   9.6984150   3.8827870
  58.8357060  11.1456630   3.8339900  54.4837170   4.1153860   3.5341720
  55.0553280   3.3476060   3.5345360  54.4838710   4.4142620   2.6248330
  63.5355370   8.9183700   2.9954030  63.4663650   7.9773640   2.8343160
  64.2975230   9.0085110   3.5676600  60.5373280   3.0666080   3.0165580
  61.0451500   3.5647050   3.6570600  61.0686520   2.2901280   2.8404940
  60.0712230   7.3459820   5.4602500  59.7381610   7.9728740   6.1023570
  60.2478910   7.8721700   4.6804170  59.2831330   9.3140620   7.2751680
  59.9005330   9.9891700   6.9936130  58.4224450   9.7228600   7.1839180
  70.2008920  10.7780030   5.1906320  69.5172440  11.4479140   5.1822990
  70.7403210  10.9760680   4.4251180  67.7367660  12.6224160   3.9051500
  67.7494820  12.2186450   3.0373760  67.1842880  13.3971450   3.8012930
  67.1353100   7.5254000   5.2334110  67.5521890   7.3114110   4.3987570
  67.8592920   7.7826790   5.8042730  71.0815200   5.9241220   5.3250350
  70.2533830   5.9934310   4.8500480  71.6765680   6.5095530   4.8566180
  68.0457210   2.7110540   6.2705220  67.6328390   3.5364250   6.5245210
  67.3133160   2.1255580   6.0781580  60.6471700   9.1838000   3.2963100
  60.3499990   8.5783470   2.6170880  61.5971520   9.2215310   3.1852460
  58.8918620   2.2713650   4.9122930  59.4433210   2.3808990   4.1376180
  59.4062130   2.6451250   5.6278160  68.7357310  12.7569870   6.9586200
  68.2587870  13.5642060   6.7658810  68.0519100  12.1048200   7.1112410
  59.7390130   8.9219690   9.9470900  58.8418660   9.1459660  10.1944300
  59.7643000   9.0454630   8.9982300  58.5661350   5.7933010   8.5228270
  58.4269120   6.6655810   8.8915670  57.6842710   5.4505820   8.3776210
  60.3641700  11.7354710  10.7313420  60.3357130  12.1397660   9.8641850
  60.2006670  10.8065070  10.5685020  72.3156520  12.5181810  12.0277590
  72.7916240  12.9964700  12.7066670  72.9363680  12.4499300  11.3023090
  54.5180000   7.5630560   4.4399180  54.5960420   7.6979330   3.4954900
  55.1321680   6.8546450   4.6327300  71.7189770   9.7094660   9.1877600
  71.8452830   9.4706540   8.2694780  71.7611150   8.8779200   9.6599680
  65.5806510  13.4122660   7.7572410  66.0951180  13.3230670   8.5594840
  64.7375590  13.7582360   8.0500320  54.5739520   8.6044730   6.9793640
  54.7370560   8.1350090   6.1613010  55.0391970   8.0968290   7.6442480
  68.6332610   1.8227960   8.7486190  67.7826200   1.5233710   9.0695260
  68.4734400   2.0669970   7.8370010  65.7282320   3.3229710  10.8484980
  66.0535730   2.4893460  10.5087210  66.5162650   3.8458230  10.9963310
  61.5771720   3.7569640  10.4095730  61.4815320   2.8164370  10.2596130
  62.4203700   3.9784710  10.0143800  65.5590280   4.0916720   4.4680170
  64.8271400   4.6003530   4.8170270  65.1614620   3.2746700   4.1668950
  56.1478500   7.9796160   9.1389450  55.7633290   7.3389830   9.7372410
  56.4590690   8.6832280   9.7084180  62.2975640   4.8272700   4.6198070
  62.6645770   4.3531270   5.3659410  62.1080700   5.7014270   4.9606410
  60.0875010   3.8681340   6.9382280  59.7832080   4.7473320   7.1632640
  61.0421470   3.9281130   6.9739720  69.3744780   7.0707690   3.3275520
  70.0943900   7.5662980   2.9371630  69.1726600   6.3925580   2.6829390
  64.7563580   7.1416750   9.2144520  64.6900890   6.2212420   8.9602110
  64.1268720   7.2392190   9.9289160  56.1438740   4.7084080   8.0853640
  55.7853680   5.3737930   8.6726980  55.8493300   3.8767630   8.4566260
  59.3451860   5.1668320  10.9693190  59.0452000   5.3125500  10.0721010
  60.1163100   4.6073610  10.8766580  64.6880310   9.9637320   8.9648320
  64.7024850   9.0318280   8.7467230  63.9805410  10.0497080   9.6038090
  70.8991520   6.6044660   8.3116900  70.1739710   7.1973440   8.1146290
  71.4266980   6.5968200   7.5130270  64.1214210  11.6054890   6.0588820
  64.7656430  11.8114270   6.7362240  64.4843650  10.8443290   5.6059670
  65.3946290   9.6087240   4.7766270  66.0368520   8.9080400   4.8898440
  65.9195640  10.3885680   4.5963160  67.1683910  10.4082140   7.9802330
  67.5040150  10.9948830   8.6580250  66.2484250  10.2774850   8.2100120
  55.0059900  12.1857580   9.7492270  55.1151020  11.2452320   9.6087660
  54.3540460  12.4512330   9.1006000  62.9972490  10.4573470  11.1490390
  62.6769360   9.7382710  11.6936080  62.3230850  11.1328540  11.2226450
  63.1728080   3.3439220   6.7365160  63.6713330   3.8185040   7.4017010
  63.3151030   2.4202740   6.9435190  70.6742530  11.9749210   2.7009170
  70.7989950  12.7980380   3.1732980  71.5408090  11.7639940   2.3533320
  58.1460060  14.0680420   2.3726300  58.8822540  13.5195880   2.6434870
  58.5300980  14.9336430   2.2332290  57.1518340  13.2526490  11.5611880
  57.9531070  13.5738540  11.9747280  56.6370160  12.8922070  12.2831790
  65.9882970   9.3606360  11.5087290  65.3821130   9.3837960  10.7683040
  65.6837080   8.6289400  12.0454540  67.4183340  13.0886650  10.1196700
  68.3705090  13.0044670  10.0696940  67.2711560  13.7528360  10.7930490
  54.8716150   5.7399950  10.5047930  55.3755170   5.1607230  11.0764160
  54.1323570   6.0240180  11.0424300  61.9254090   7.1470940  10.0383450
  61.1599760   7.7155940   9.9538120  62.1070050   6.8547150   9.1451680
  69.0677440   8.8776270  10.5958470  69.8086910   9.2152030  10.0925930
  68.3050120   9.0468330  10.0428240  56.9039230   3.8829540  11.3998000
  56.9444570   3.5843410  12.3083230  57.7584730   4.2837150  11.2405520
  58.8445040   2.4621640   9.3672490  58.3141500   1.9712590   8.7395830
  59.5133110   2.8905840   8.8330420  67.7423100   6.9291100   9.1313680
  68.1564120   7.0836180   9.9804100  66.8074100   7.0546320   9.2939460
  68.2145270   4.2687260  11.1352830  68.7966040   3.5139580  11.0473310
  68.3907040   4.7994700  10.3584310  62.5038330   6.8811580   7.1009610
  62.9226440   7.7244310   6.9285850  61.5846960   7.0183620   6.8716390
  64.8402230   4.6127760   8.4847450  64.9598440   4.0168900   9.2242290
  65.6996230   4.6497450   8.0648750  67.1790130   5.1664950   7.0609960
  66.6525350   5.6907570   6.4575100  67.5221470   5.7992340   7.6919690
  60.3545750  13.1864590   8.2167340  59.8166840  13.9110650   7.8976040
  60.6079710  12.7094930   7.4264680  63.2107960  14.4215800   8.4753990
  63.1366660  15.3250940   8.7826360  62.3086800  14.1027700   8.4476060
  55.1025460  12.6160980   4.5169240  54.6656450  12.7961780   5.3493390
  55.6703140  13.3735600   4.3750960  70.7387640  12.1177980   8.8046550
  70.1389630  12.1770540   8.0610470  70.8681540  11.1782960   8.9343400
  69.4239280   8.8429960   6.9022710  68.6099120   9.2727120   7.1648500
  69.8313480   9.4548370   6.2891760  55.9725820   5.5133780   5.4161460
  56.3398860   5.4261180   6.2957480  55.4036640   4.7500330   5.3168320
  70.7729680   3.9818160   8.4291930  70.5415770   3.7530910   7.5289880
  71.0334230   4.9017710   8.3836820  55.5241820   2.4242870   9.3219880
  54.6297870   2.3909630   9.6613590  56.0639370   2.6229660  10.0871130
  70.8370740   3.1444000   5.6179200  69.8873450   3.1107540   5.7324190
  71.0183750   4.0544110   5.3828970  57.3877900  10.0266470  10.5781610
  57.3447530   9.6559380  11.4596070  57.5188910  10.9644040  10.7183430
  61.0883930  11.5826060   6.1791330  60.8475290  11.8500620   5.2921850
  62.0286570  11.7531790   6.2342190  72.3488090  13.6020440   6.9801970
  71.8546370  13.9989310   6.2629100  71.7401380  12.9769650   7.3739250
  57.2265930  12.9728720   7.6979390  56.6326250  12.8413420   8.4369430
  57.2189770  12.1366860   7.2321490  70.0327540  14.2443860   4.2588710
  69.5730510  14.9959670   3.8846730  69.4040000  13.5250330   4.2003510
  56.8578160  10.3387100   6.6487430  56.1312220   9.7192390   6.5813380
  56.9187310  10.7327710   5.7785510  60.4623260  12.5532100   3.4336840
  60.9788280  11.9419460   2.9085100  61.1120640  13.0560880   3.9247850
  63.2018760  13.4440590   4.2605820  63.4896570  13.1894890   3.3838830
  63.7141980  12.8917950   4.8511390  63.2691120  14.3656690  11.6274020
  64.1958430  14.1300960  11.6709980  63.2541550  15.1928690  11.1460050
  69.8368680  13.5926550  11.4515060  70.6294000  13.0975780  11.2441020
  70.1301830  14.2716690  12.0590670  47.1884850  79.5621450  76.2048560
  47.1078900  78.6476060  75.9340270  46.7749270  80.0588520  75.4988270
  45.3202890  81.3400470  78.0857830  44.5444990  80.8600910  78.3756400
  45.9715820  80.6606120  77.9113990  37.7460670  76.6122170  72.7475980
  36.8577370  76.9538140  72.6455860  38.0301860  76.4122490  71.8556810
  35.7093680  79.2127820  78.6315680  36.2809790  78.4450020  78.6319320
  35.7095220  79.5116580  77.7222290  44.7611880  84.0157660  78.0927990
  44.6920160  83.0747600  77.9317120  45.5231740  84.1059070  78.6650560
  45.7917050  76.8228040  78.3196920  46.1681870  75.9499920  78.2070590
  45.6936560  77.1586740  77.4287360  39.9222060  75.1953670  73.7814360
  40.0288810  76.0957400  74.0883120  39.0114420  75.1471640  73.4909010
  49.5741170  74.3178480  75.2525260  50.3950790  73.8275050  75.2950740
  49.6075250  74.9076140  76.0057100  41.7629790  78.1640040  78.1139540
  42.2708010  78.6621010  78.7544560  42.2943030  77.3875240  77.9378900
  46.4336980  82.9157910  73.8792860  45.8154250  83.3807360  73.3155580
  46.9460230  83.6085390  74.2962370  49.8102650  76.2578860  78.0252800
  49.1058220  76.5463750  78.6055910  50.1714810  77.0678970  77.6652360
  52.8789570  75.7033650  78.4162010  51.9314480  75.7372630  78.5477440
  53.2039560  76.5172600  78.8011370  43.4109110  72.0030830  76.7118000
  43.7184090  71.4477720  75.9953500  42.4809810  72.1375290  76.5290990
  45.7989870  80.0679660  73.4478120  44.8719150  80.0017040  73.6766590
  45.9514690  81.0059790  73.3333360  45.7858950  76.3396660  70.4445280
  44.8462620  76.5010620  70.5297740  46.1042210  77.0582340  69.8981270
  49.8287160  81.6299960  73.9513370  49.2099580  81.2919510  73.3039670
  49.8111610  80.9859720  74.6592560  41.4046510  80.5944400  76.2297850
  41.0003510  79.8821650  75.7343750  41.4909630  80.2497640  77.1185890
  48.0051860  80.8686770  70.9586120  48.4445140  80.0309200  70.8123940
  48.7180280  81.5016170  71.0450260  51.5869000  72.1229580  69.2727160
  51.2741660  72.2156410  70.1726230  52.3481470  72.7010610  69.2224590
  38.1051140  79.4889380  73.7304500  37.9848740  80.2151470  73.1185770
  37.7952030  78.7192290  73.2532410  40.5714800  72.8324450  77.1128170
  40.1282950  73.6133990  76.7812690  41.1299790  73.1554340  77.8199110
  43.6873620  72.4535150  71.9934000  43.0627800  72.4495020  72.7187310
  43.6003740  71.5866110  71.5969970  40.3629020  77.9558020  74.8409420
  40.1369940  77.7395190  75.7456040  39.5821550  78.3886480  74.4955390
  47.5926780  77.9621390  73.4400070  46.9935670  78.6857190  73.2563690
  48.1406390  77.8998170  72.6576520  46.1991650  76.5984930  75.4703350
  46.5921220  76.9157130  74.6572040  46.5608500  75.7196810  75.5847870
  35.2355820  73.1885730  77.6933550  34.9468870  73.7588590  78.4058530
  35.9801580  72.7090180  78.0564780  35.4226050  77.1305850  68.9036270
  35.3400720  78.0736610  69.0451260  35.0709110  76.9880760  68.0248620
  43.2224180  75.8644880  77.9706620  43.2260240  75.4234830  77.1211160
  44.1175300  76.1862210  78.0778440  39.0726560  75.7471370  76.9300830
  38.7326610  76.2246600  77.6867880  38.3103880  75.2936490  76.5701930
  43.2844330  76.8656960  70.9613380  43.4057150  76.8243440  71.9099200
  42.8992840  77.7281110  70.8060110  42.2965830  79.1758100  70.3596680
  41.7282730  78.7276350  69.7332590  43.0054830  79.5350880  69.8261830
  36.3872640  74.6690350  75.8465500  36.1019560  74.3046020  76.6844120
  36.3251500  73.9370810  75.2328640  39.8413310  83.1716290  72.6323090
  39.0675570  82.6313910  72.4721810  40.5707940  82.6522900  72.2940850
  50.6001290  82.1681650  78.4249480  51.3200410  82.6636940  78.0345590
  50.3983110  81.4899540  77.7803350  46.0611230  73.5619610  72.5678870
  45.2475840  73.0632780  72.4924180  45.8673180  74.4017860  72.1515220
  48.7759620  77.9339260  70.8641030  49.6639240  78.2456490  70.6892370
  48.7464710  77.0611510  70.4721610  39.8850710  82.8396670  76.2701900
  40.4029380  82.0364930  76.2158790  39.4334730  82.7775810  77.1118730
  51.0473890  79.2451100  70.3320890  50.9637610  79.6765320  69.4817330
  51.7668080  79.7049450  70.7647710  47.6547620  83.4278790  76.9074710
  48.0071440  82.8306920  76.2476080  46.7709950  83.1023020  77.0782960
  35.8803300  79.8049300  69.8062200  36.7498150  80.0874100  70.0898120
  35.3893620  80.6185170  69.6911010  43.0438110  81.1922510  73.9270480
  43.5000890  82.0027760  74.1530670  42.6926320  80.8745650  74.7588970
  38.9449890  71.5360160  74.3993000  38.8164520  71.5278060  75.3477920
  38.1211910  71.8743250  74.0484010  50.0474770  82.9081760  71.2593530
  49.7596470  83.3694450  72.0471410  50.8426940  82.4479530  71.5277750
  37.8649810  81.6222770  71.9344260  37.2577760  82.3621670  71.9439560
  38.3399160  81.7122130  71.1082460  50.8044630  74.7430530  72.4188710
  50.1757790  74.8476200  71.7046940  50.3096550  74.9627310  73.2082590
  42.7728660  77.0216480  73.8346590  42.0644810  77.4902820  74.2760200
  43.0573140  76.3638490  74.4691780  46.8044090  73.7467140  75.2742380
  46.6811870  73.7653270  74.3251890  47.7528650  73.7946080  75.3940780
  40.9763680  75.3301560  71.2097300  41.8254210  75.7671710  71.1437490
  40.6094950  75.6421820  72.0369360  49.8973460  79.9014320  76.1228870
  48.9563600  79.9164550  76.2976560  50.2117530  79.1150280  76.5689170
  39.8755100  81.5833920  69.6832830  40.6418370  81.4715280  70.2458260
  39.9529790  80.8871890  69.0309600  38.5701860  79.0158990  70.3665720
  38.6505450  78.0686500  70.4783120  39.4621610  79.3465870  70.4726380
  42.9996280  83.5588100  69.1568180  42.8946920  82.9440450  69.8829560
  42.8320500  83.0353990  68.3731190  46.2399010  82.6208130  69.7610170
  45.6909110  83.0677430  70.4052910  46.8618270  82.1157380  70.2847840
  41.9074130  81.5799050  71.6575470  42.3290550  81.4138920  72.5006860
  42.0324970  80.7699280  71.1630610  44.4201770  80.6036660  68.9052570
  44.9407430  79.8885680  68.5393720  45.0670170  81.2422530  69.2053080
  40.8033030  77.6532280  68.6033630  40.6022090  76.7899640  68.9646970
  40.6325080  77.5665640  67.6655230  48.2821340  72.4640510  71.1320510
  48.5623630  71.6208410  71.4879930  47.5087070  72.6963620  71.6459260
  39.6015830  74.7532900  68.5911510  39.9041730  74.7600330  67.6830660
  40.3410420  74.4030760  69.0879170  42.8200760  73.6967520  69.5767710
  42.4722760  73.0191510  68.9970160  43.0213530  73.2357030  70.3911100
  52.6602060  81.7017240  71.7424420  53.4220970  82.2713890  71.8484110
  52.6756430  81.1344440  72.5132730  36.1606400  80.2255170  75.9732080
  35.5055240  79.9566810  75.3291780  36.9984350  80.1159650  75.5234060
  53.6662030  82.5567340  76.5866350  54.0370860  81.7734660  76.1802320
  54.3063960  83.2456440  76.4083650  52.7121230  81.9951610  68.8996940
  52.9870070  82.9030490  68.7716160  52.5231970  81.9314140  69.8358930
  49.1096840  75.0196460  70.1950570  49.5281720  74.8327440  69.3547230
  48.8032900  74.1675510  70.5053500  52.6086570  79.9320600  73.8926370
  52.2330170  79.1648530  73.4607660  51.8789690  80.3143300  74.3801300
  35.3744480  77.4354100  71.9157410  34.4708560  77.6984300  71.7409070
  35.8585100  77.7065270  71.1357370  51.8837530  78.1578090  77.1933610
  52.4075010  77.6640740  76.5623780  52.4696950  78.2928450  77.9381180
  37.9171690  76.4919640  69.8251790  38.6263390  76.0702860  69.3399070
  37.2011630  76.5594870  69.1935140  37.5645850  72.5458970  68.8654440
  38.2873980  73.0867910  69.1835660  37.8370370  72.2722390  67.9895980
  51.3737500  77.4151440  73.1326020  51.8696620  77.1822310  73.9174900
  51.1753570  76.5763280  72.7163660  52.8024660  76.0512390  75.6663700
  52.6923940  75.8968430  76.6045970  53.5632250  75.5233330  75.4239110
  53.6914930  73.8820310  68.9069840  54.6164240  73.7501490  68.6988130
  53.6690720  73.9613130  69.8606290  53.7653420  74.6530970  71.5326550
  52.9704920  74.5876090  72.0619460  53.9696700  75.5881610  71.5211900
  50.1973350  72.9827850  77.9825380  50.6381440  72.9272950  77.1346980
  49.9280940  73.8985860  78.0535560  52.0611920  72.6143090  75.9934200
  52.0000320  71.6704310  75.8465220  52.8403950  72.7223180  76.5387660
  36.9892690  72.5852230  72.4590010  37.7472050  72.6981110  71.8854040
  36.5269860  73.4221430  72.4133440  43.5306500  74.6991500  75.4492320
  42.7181010  74.3248390  75.1088200  44.0348140  73.9436580  75.7513510
  48.0331480  71.3633950  76.6875390  48.6360850  71.9354160  77.1623910
  47.2924470  71.9273390  76.4649290  51.1766080  71.7655510  71.9615670
  51.3716710  72.6638960  72.2283100  50.3895950  71.5342590  72.4548620
  39.3617840  73.1116280  70.9991980  39.8910600  72.3246080  70.8699930
  39.9946160  73.7907470  71.2327510  41.5555680  72.8491420  74.0537370
  40.9258420  72.1478730  74.2207500  41.0160820  73.6095550  73.8370530
  47.1884850  79.5621450  57.4305070  47.1078900  78.6476060  57.1596780
  46.7749270  80.0588520  56.7244780  45.3202890  81.3400470  59.3114340
  44.5444990  80.8600910  59.6012910  45.9715820  80.6606120  59.1370500
  39.3368720  81.6520280  60.1890100  38.5053600  81.3968990  60.5886610
  39.9449700  81.7231050  60.9248020  37.7460670  76.6122170  53.9732490
  36.8577370  76.9538140  53.8712370  38.0301860  76.4122490  53.0813320
  35.7093680  79.2127820  59.8572190  36.2809790  78.4450020  59.8575830
  35.7095220  79.5116580  58.9478800  44.7611880  84.0157660  59.3184500
  44.6920160  83.0747600  59.1573630  45.5231740  84.1059070  59.8907070
  36.9518550  74.6212180  61.6441120  36.7721390  73.7237930  61.9243880
  36.5498630  75.1684050  62.3188070  45.7917050  76.8228040  59.5453430
  46.1681870  75.9499920  59.4327100  45.6936560  77.1586740  58.6543870
  39.9222060  75.1953670  55.0070870  40.0288810  76.0957400  55.3139630
  39.0114420  75.1471640  54.7165520  49.5741170  74.3178480  56.4781770
  50.3950790  73.8275050  56.5207250  49.6075250  74.9076140  57.2313610
  37.5705220  77.1172680  60.2523460  38.2515330  77.3811050  60.8710860
  37.2553270  76.2773550  60.5861470  41.7629790  78.1640040  59.3396050
  42.2708010  78.6621010  59.9801070  42.2943030  77.3875240  59.1635410
  53.8640720  76.3345230  63.0425400  53.1592890  76.7226940  62.5240510
  54.1298640  77.0295520  63.6446330  40.0465890  72.8038600  63.6059470
  40.0484330  73.3210990  62.8005370  39.2170200  72.3268780  63.5829400
  46.4336980  82.9157910  55.1049370  45.8154250  83.3807360  54.5412090
  46.9460230  83.6085390  55.5218880  41.2968740  82.4433780  61.7832970
  40.9638120  83.0702700  62.4254040  41.4735420  82.9695660  61.0034640
  49.8102650  76.2578860  59.2509310  49.1058220  76.5463750  59.8312420
  50.1714810  77.0678970  58.8908870  39.7281220  74.5148560  61.6129920
  40.0698030  75.3590610  61.3183790  38.7897030  74.6632300  61.7295260
  52.8789570  75.7033650  59.6418520  51.9314480  75.7372630  59.7733950
  53.2039560  76.5172600  60.0267880  43.4109110  72.0030830  57.9374510
  43.7184090  71.4477720  57.2210010  42.4809810  72.1375290  57.7547500
  48.3609610  82.6227960  61.5564580  48.7778400  82.4088070  60.7218040
  49.0849430  82.8800750  62.1273200  45.7989870  80.0679660  54.6734630
  44.8719150  80.0017040  54.9023100  45.9514690  81.0059790  54.5589870
  45.7858950  76.3396660  51.6701790  44.8462620  76.5010620  51.7554250
  46.1042210  77.0582340  51.1237780  52.3071710  81.0215180  61.6480820
  51.4790340  81.0908270  61.1730950  52.9022190  81.6069490  61.1796650
  49.8287160  81.6299960  55.1769880  49.2099580  81.2919510  54.5296180
  49.8111610  80.9859720  55.8849070  49.2713720  77.8084500  62.5935690
  48.8584900  78.6338210  62.8475680  48.5389670  77.2229540  62.4012050
  41.4046510  80.5944400  57.4554360  41.0003510  79.8821650  56.9600260
  41.4909630  80.2497640  58.3442400  40.1175130  77.3687610  61.2353400
  40.6689720  77.4782950  60.4606650  40.6318640  77.7425210  61.9508630
  48.0051860  80.8686770  52.1842630  48.4445140  80.0309200  52.0380450
  48.7180280  81.5016170  52.2706770  39.7917860  80.8906970  64.8458740
  39.6525630  81.7629770  65.2146140  38.9099220  80.5479780  64.7006680
  51.5869000  72.1229580  50.4983670  51.2741660  72.2156410  51.3982740
  52.3481470  72.7010610  50.4481100  38.1051140  79.4889380  54.9561010
  37.9848740  80.2151470  54.3442280  37.7952030  78.7192290  54.4788920
  35.7436510  82.6604520  60.7629650  35.8216930  82.7953290  59.8185370
  36.3578190  81.9520410  60.9557770  52.7970290  76.8601080  66.4757810
  52.1814560  77.3680750  65.9473270  52.4766710  75.9599410  66.4183750
  35.7996030  83.7018690  63.3024110  35.9627070  83.2324050  62.4843480
  36.2648480  83.1942250  63.9672950  40.5714800  72.8324450  58.3384680
  40.1282950  73.6133990  58.0069200  41.1299790  73.1554340  59.0455620
  44.8584610  75.6992970  63.9420000  44.3963980  75.9075990  64.7539940
  44.4562720  74.8852320  63.6390670  49.8589120  76.9201920  65.0716660
  49.0082710  76.6207670  65.3925730  49.6990910  77.1643930  64.1600480
  46.9538830  78.4203670  67.1715450  47.2792240  77.5867420  66.8317680
  47.7419160  78.9432190  67.3193780  43.6873620  72.4535150  53.2190510
  43.0627800  72.4495020  53.9443820  43.6003740  71.5866110  52.8226480
  42.6090700  73.3771780  60.1974280  42.9063030  74.2834610  60.1166300
  43.1576260  72.8890560  59.5833850  40.3629020  77.9558020  56.0665930
  40.1369940  77.7395190  56.9712550  39.5821550  78.3886480  55.7211900
  47.5926780  77.9621390  54.6656580  46.9935670  78.6857190  54.4820200
  48.1406390  77.8998170  53.8833030  42.8028230  78.8543600  66.7326200
  42.7071830  77.9138330  66.5826600  43.6460210  79.0758670  66.3374270
  46.1991650  76.5984930  56.6959860  46.5921220  76.9157130  55.8828550
  46.5608500  75.7196810  56.8104380  37.9338770  75.2657270  64.8859980
  37.5402160  76.1132480  65.0932760  37.2457170  74.6283640  65.0768620
  44.5083820  75.3492240  67.9556720  43.8182140  75.1564440  68.5902810
  45.2516120  75.6326880  68.4881020  35.2355820  73.1885730  58.9190060
  34.9468870  73.7588590  59.6315040  35.9801580  72.7090180  59.2821290
  35.4226050  77.1305850  50.1292780  35.3400720  78.0736610  50.2707770
  35.0709110  76.9880760  49.2505130  46.7846790  79.1890680  60.7910640
  46.0527910  79.6977490  61.1400740  46.3871130  78.3720660  60.4899420
  43.2224180  75.8644880  59.1963130  43.2260240  75.4234830  58.3467670
  44.1175300  76.1862210  59.3034950  39.0726560  75.7471370  58.1557340
  38.7326610  76.2246600  58.9124390  38.3103880  75.2936490  57.7958440
  43.2844330  76.8656960  52.1869890  43.4057150  76.8243440  53.1355710
  42.8992840  77.7281110  52.0316620  47.2472700  74.6424360  60.2033580
  47.2645440  75.0933010  61.0475430  46.9988280  73.7430000  60.4167020
  42.2965830  79.1758100  51.5853190  41.7282730  78.7276350  50.9589100
  43.0054830  79.5350880  51.0518340  50.6743450  72.0556540  66.0419960
  50.9989220  71.3246200  66.5677940  50.7099960  71.7370180  65.1400950
  37.3735010  83.0770120  65.4619920  36.9889800  82.4363790  66.0602880
  37.6847200  83.7806240  66.0314650  43.5232150  79.9246660  60.9428540
  43.8902280  79.4505230  61.6889880  43.3337210  80.7988230  61.2836880
  36.3872640  74.6690350  57.0722010  36.1019560  74.3046020  57.9100630
  36.3251500  73.9370810  56.4585150  41.3131520  78.9655300  63.2612750
  41.0088590  79.8447280  63.4863110  42.2677980  79.0255090  63.2970190
  39.8413310  83.1716290  53.8579600  39.0675570  82.6313910  53.6978320
  40.5707940  82.6522900  53.5197360  50.6001290  82.1681650  59.6505990
  51.3200410  82.6636940  59.2602100  50.3983110  81.4899540  59.0059860
  46.0611230  73.5619610  53.7935380  45.2475840  73.0632780  53.7180690
  45.8673180  74.4017860  53.3771730  45.9820090  82.2390710  65.5374990
  45.9157400  81.3186380  65.2832580  45.3525230  82.3366150  66.2519630
  48.7759620  77.9339260  52.0897540  49.6639240  78.2456490  51.9148880
  48.7464710  77.0611510  51.6978120  39.8850710  82.8396670  57.4958410
  40.4029380  82.0364930  57.4415300  39.4334730  82.7775810  58.3375240
  37.3695250  79.8058040  64.4084110  37.0110190  80.4711890  64.9957450
  37.0749810  78.9741590  64.7796730  40.5708370  80.2642280  67.2923660
  40.2708510  80.4099460  66.3951480  41.3419610  79.7047570  67.1997050
  51.0473890  79.2451100  51.5577400  50.9637610  79.6765320  50.7073840
  51.7668080  79.7049450  51.9904220  52.1248030  81.7018620  64.6347370
  51.3996220  82.2947400  64.4376760  52.6523490  81.6942160  63.8360740
  47.6547620  83.4278790  58.1331220  48.0071440  82.8306920  57.4732590
  46.7709950  83.1023020  58.3039470  35.8803300  79.8049300  51.0318710
  36.7498150  80.0874100  51.3154630  35.3893620  80.6185170  50.9167520
  43.0438110  81.1922510  55.1526990  43.5000890  82.0027760  55.3787180
  42.6926320  80.8745650  55.9845480  38.9449890  71.5360160  55.6249510
  38.8164520  71.5278060  56.5734430  38.1211910  71.8743250  55.2740520
  35.9443820  73.2951280  65.0856210  35.2302340  73.4948200  65.6908820
  36.3638860  72.5190850  65.4571010  50.0474770  82.9081760  52.4850040
  49.7596470  83.3694450  53.2727920  50.8426940  82.4479530  52.7534260
  37.8649810  81.6222770  53.1600770  37.2577760  82.3621670  53.1696070
  38.3399160  81.7122130  52.3338970  47.4382600  75.7873590  62.8357660
  47.8063420  74.9668800  63.1637230  46.5780800  75.8475480  63.2513310
  50.8044630  74.7430530  53.6445220  50.1757790  74.8476200  52.9303450
  50.3096550  74.9627310  54.4339100  42.7728660  77.0216480  55.0603100
  42.0644810  77.4902820  55.5016710  43.0573140  76.3638490  55.6948290
  44.3984590  78.4413180  63.0595630  44.8969840  78.9159000  63.7247480
  44.5407540  77.5176700  63.2665660  46.8044090  73.7467140  56.4998890
  46.6811870  73.7653270  55.5508400  47.7528650  73.7946080  56.6197290
  40.9763680  75.3301560  52.4353810  41.8254210  75.7671710  52.3694000
  40.6094950  75.6421820  53.2625870  51.6051450  74.6581140  63.9024020
  51.1025050  75.3986540  64.2417830  52.4208110  75.0465140  63.5860810
  49.8973460  79.9014320  57.3485380  48.9563600  79.9164550  57.5233070
  50.2117530  79.1150280  57.7945680  39.8755100  81.5833920  50.9089340
  40.6418370  81.4715280  51.4714770  39.9529790  80.8871890  50.2566110
  38.5701860  79.0158990  51.5922230  38.6505450  78.0686500  51.7039630
  39.4621610  79.3465870  51.6982890  36.0972660  80.8373910  66.8278400
  36.6011680  80.2581190  67.3994630  35.3580080  81.1214140  67.3654770
  42.9996280  83.5588100  50.3824690  42.8946920  82.9440450  51.1086070
  42.8320500  83.0353990  49.5987700  43.1510600  82.2444900  66.3613920
  42.3856270  82.8129900  66.2768590  43.3326560  81.9521110  65.4682150
  46.2399010  82.6208130  50.9866680  45.6909110  83.0677430  51.6309420
  46.8618270  82.1157380  51.5104350  38.1295740  78.9803500  67.7228470
  38.1701080  78.6817370  68.6313700  38.9841240  79.3811110  67.5635990
  41.9074130  81.5799050  52.8831980  42.3290550  81.4138920  53.7263370
  42.0324970  80.7699280  52.3887120  40.0701550  77.5595600  65.6902960
  39.5398010  77.0686550  65.0626300  40.7389620  77.9879800  65.1560890
  44.4201770  80.6036660  50.1309080  44.9407430  79.8885680  49.7650230
  45.0670170  81.2422530  50.4309590  48.9679610  82.0265060  65.4544150
  49.3820630  82.1810140  66.3034570  48.0330610  82.1520280  65.6169930
  49.4401780  79.3661220  67.4583300  50.0222550  78.6113540  67.3703780
  49.6163550  79.8968660  66.6814780  40.5573850  74.5257970  65.7700250
  40.4630720  73.9078720  65.0451120  39.9771240  75.2524260  65.5430160
  43.3235290  73.0831210  62.8027640  42.8752590  73.1055470  61.9573190
  42.6900490  72.6850230  63.3997940  43.7294840  81.9785540  63.4240080
  44.1482950  82.8218270  63.2516320  42.8103470  82.1157580  63.1946860
  46.0658740  79.7101720  64.8077920  46.1854950  79.1142860  65.5472760
  46.9252740  79.7471410  64.3879220  48.4046640  80.2638910  63.3840430
  47.8781860  80.7881530  62.7805570  48.7477980  80.8966300  64.0150160
  40.8033030  77.6532280  49.8290140  40.6022090  76.7899640  50.1903480
  40.6325080  77.5665640  48.8911740  42.8327510  76.2523070  66.0653740
  43.4227200  75.9438920  66.7531560  42.0147750  75.7802820  66.2213640
  47.6520940  75.8688880  66.2986760  46.9636460  75.2070420  66.2336750
  48.3726960  75.4227150  66.7435220  48.2821340  72.4640510  52.3577020
  48.5623630  71.6208410  52.7136440  47.5087070  72.6963620  52.8715770
  39.6015830  74.7532900  49.8168020  39.9041730  74.7600330  48.9087170
  40.3410420  74.4030760  50.3135680  42.8200760  73.6967520  50.8024220
  42.4722760  73.0191510  50.2226670  43.0213530  73.2357030  51.6167610
  52.6602060  81.7017240  52.9680930  53.4220970  82.2713890  53.0740620
  52.6756430  81.1344440  53.7389240  36.1606400  80.2255170  57.1988590
  35.5055240  79.9566810  56.5548290  36.9984350  80.1159650  56.7490570
  53.6662030  82.5567340  57.8122860  54.0370860  81.7734660  57.4058830
  54.3063960  83.2456440  57.6340160  52.7121230  81.9951610  50.1253450
  52.9870070  82.9030490  49.9972670  52.5231970  81.9314140  51.0615440
  49.1096840  75.0196460  51.4207080  49.5281720  74.8327440  50.5803740
  48.8032900  74.1675510  51.7310010  52.6086570  79.9320600  55.1182880
  52.2330170  79.1648530  54.6864170  51.8789690  80.3143300  55.6057810
  37.1982330  80.6107740  61.7391930  37.5655370  80.5235140  62.6187950
  36.6293150  79.8474290  61.6398790  51.9986190  79.0792120  64.7522400
  51.7672280  78.8504870  63.8520350  52.2590740  79.9991670  64.7067290
  36.7498330  77.5216830  65.6450350  35.8554380  77.4883590  65.9844060
  37.2895880  77.7203620  66.4101600  50.4374260  74.3048550  67.5302100
  51.3144440  74.3131950  67.9136100  50.4495100  73.5679390  66.9194450
  35.3744480  77.4354100  53.1413920  34.4708560  77.6984300  52.9665580
  35.8585100  77.7065270  52.3613880  51.8837530  78.1578090  58.4190120
  52.4075010  77.6640740  57.7880290  52.4696950  78.2928450  59.1637690
  52.0627250  78.2417960  61.9409670  51.1129960  78.2081500  62.0554660
  52.2440260  79.1518070  61.7059440  37.9171690  76.4919640  51.0508300
  38.6263390  76.0702860  50.5655580  37.2011630  76.5594870  50.4191650
  37.5645850  72.5458970  50.0910950  38.2873980  73.0867910  50.4092170
  37.8370370  72.2722390  49.2152490  51.3737500  77.4151440  54.3582530
  51.8696620  77.1822310  55.1431410  51.1753570  76.5763280  53.9420170
  37.2538040  71.7965160  59.9933570  37.9014230  71.2462540  59.5528730
  37.6739880  72.0508310  60.8149380  52.8024660  76.0512390  56.8920210
  52.6923940  75.8968430  57.8302480  53.5632250  75.5233330  56.6495620
  51.1490380  71.9906520  63.3503210  51.7862600  72.6040660  63.7162400
  51.2965270  72.0267180  62.4052440  53.6914930  73.8820310  50.1326350
  54.6164240  73.7501490  49.9244640  53.6690720  73.9613130  51.0862800
  53.7653420  74.6530970  52.7583060  52.9704920  74.5876090  53.2875970
  53.9696700  75.5881610  52.7468410  37.0070040  71.9520830  62.7358890
  36.6584860  72.4084650  63.5017070  36.6757740  71.0577960  62.8181320
  44.5194860  73.1432710  66.2578310  44.4583750  73.7354540  67.0073720
  45.4595240  73.0358670  66.1128570  47.1569420  72.8002770  65.8970600
  47.7709830  73.1182060  65.2351680  47.7018980  72.3151360  66.5166460
  37.6790680  71.4797030  66.0109660  38.2273670  71.2985080  65.2475770
  37.7445990  70.6891140  66.5465970  47.8977460  71.3634910  62.2239890
  47.0237300  71.6970020  62.0212820  47.7888210  70.8908090  63.0491760
  48.8049440  73.5705780  63.6081610  48.4762800  72.7557540  63.2283340
  49.7531740  73.5275590  63.4847300  45.6452280  72.2804750  61.1632800
  44.8624070  72.7550250  61.4429560  45.3515210  71.3759580  61.0545980
  50.1973350  72.9827850  59.2081890  50.6381440  72.9272950  58.3603490
  49.9280940  73.8985860  59.2792070  52.0611920  72.6143090  57.2190710
  52.0000320  71.6704310  57.0721730  52.8403950  72.7223180  57.7644170
  36.9892690  72.5852230  53.6846520  37.7472050  72.6981110  53.1110550
  36.5269860  73.4221430  53.6389950  43.5306500  74.6991500  56.6748830
  42.7181010  74.3248390  56.3344710  44.0348140  73.9436580  56.9770020
  48.0331480  71.3633950  57.9131900  48.6360850  71.9354160  58.3880420
  47.2924470  71.9273390  57.6905800  51.1766080  71.7655510  53.1872180
  51.3716710  72.6638960  53.4539610  50.3895950  71.5342590  53.6805130
  39.3617840  73.1116280  52.2248490  39.8910600  72.3246080  52.0956440
  39.9946160  73.7907470  52.4584020  41.5555680  72.8491420  55.2793880
  40.9258420  72.1478730  55.4464010  41.0160820  73.6095550  55.0627040
  41.6811240  72.1275400  67.7146370  41.3995510  72.6309000  66.9507190
  42.0630940  71.3297150  67.3488500  48.2826700  71.5428980  68.2926840
  48.1692150  71.8623590  69.1878360  49.0996440  71.9441490  67.9964120
  47.1884850  79.5621450  38.6561580  47.1078900  78.6476060  38.3853290
  46.7749270  80.0588520  37.9501290  45.3202890  81.3400470  40.5370850
  44.5444990  80.8600910  40.8269420  45.9715820  80.6606120  40.3627010
  39.3368720  81.6520280  41.4146610  38.5053600  81.3968990  41.8143120
  39.9449700  81.7231050  42.1504530  37.7460670  76.6122170  35.1989000
  36.8577370  76.9538140  35.0968880  38.0301860  76.4122490  34.3069830
  35.7093680  79.2127820  41.0828700  36.2809790  78.4450020  41.0832340
  35.7095220  79.5116580  40.1735310  44.7611880  84.0157660  40.5441010
  44.6920160  83.0747600  40.3830140  45.5231740  84.1059070  41.1163580
  36.9518550  74.6212180  42.8697630  36.7721390  73.7237930  43.1500390
  36.5498630  75.1684050  43.5444580  45.7917050  76.8228040  40.7709940
  46.1681870  75.9499920  40.6583610  45.6936560  77.1586740  39.8800380
  39.9222060  75.1953670  36.2327380  40.0288810  76.0957400  36.5396140
  39.0114420  75.1471640  35.9422030  49.5741170  74.3178480  37.7038280
  50.3950790  73.8275050  37.7463760  49.6075250  74.9076140  38.4570120
  37.5705220  77.1172680  41.4779970  38.2515330  77.3811050  42.0967370
  37.2553270  76.2773550  41.8117980  41.7629790  78.1640040  40.5652560
  42.2708010  78.6621010  41.2057580  42.2943030  77.3875240  40.3891920
  53.8640720  76.3345230  44.2681910  53.1592890  76.7226940  43.7497020
  54.1298640  77.0295520  44.8702840  40.0465890  72.8038600  44.8315980
  40.0484330  73.3210990  44.0261880  39.2170200  72.3268780  44.8085910
  46.4336980  82.9157910  36.3305880  45.8154250  83.3807360  35.7668600
  46.9460230  83.6085390  36.7475390  41.2968740  82.4433780  43.0089480
  40.9638120  83.0702700  43.6510550  41.4735420  82.9695660  42.2291150
  49.8102650  76.2578860  40.4765820  49.1058220  76.5463750  41.0568930
  50.1714810  77.0678970  40.1165380  39.7281220  74.5148560  42.8386430
  40.0698030  75.3590610  42.5440300  38.7897030  74.6632300  42.9551770
  52.8789570  75.7033650  40.8675030  51.9314480  75.7372630  40.9990460
  53.2039560  76.5172600  41.2524390  43.4109110  72.0030830  39.1631020
  43.7184090  71.4477720  38.4466520  42.4809810  72.1375290  38.9804010
  48.3609610  82.6227960  42.7821090  48.7778400  82.4088070  41.9474550
  49.0849430  82.8800750  43.3529710  45.7989870  80.0679660  35.8991140
  44.8719150  80.0017040  36.1279610  45.9514690  81.0059790  35.7846380
  45.7858950  76.3396660  32.8958300  44.8462620  76.5010620  32.9810760
  46.1042210  77.0582340  32.3494290  52.3071710  81.0215180  42.8737330
  51.4790340  81.0908270  42.3987460  52.9022190  81.6069490  42.4053160
  49.8287160  81.6299960  36.4026390  49.2099580  81.2919510  35.7552690
  49.8111610  80.9859720  37.1105580  49.2713720  77.8084500  43.8192200
  48.8584900  78.6338210  44.0732190  48.5389670  77.2229540  43.6268560
  41.4046510  80.5944400  38.6810870  41.0003510  79.8821650  38.1856770
  41.4909630  80.2497640  39.5698910  40.1175130  77.3687610  42.4609910
  40.6689720  77.4782950  41.6863160  40.6318640  77.7425210  43.1765140
  48.0051860  80.8686770  33.4099140  48.4445140  80.0309200  33.2636960
  48.7180280  81.5016170  33.4963280  39.7917860  80.8906970  46.0715250
  39.6525630  81.7629770  46.4402650  38.9099220  80.5479780  45.9263190
  51.5869000  72.1229580  31.7240180  51.2741660  72.2156410  32.6239250
  52.3481470  72.7010610  31.6737610  38.1051140  79.4889380  36.1817520
  37.9848740  80.2151470  35.5698790  37.7952030  78.7192290  35.7045430
  35.7436510  82.6604520  41.9886160  35.8216930  82.7953290  41.0441880
  36.3578190  81.9520410  42.1814280  52.7970290  76.8601080  47.7014320
  52.1814560  77.3680750  47.1729780  52.4766710  75.9599410  47.6440260
  35.7996030  83.7018690  44.5280620  35.9627070  83.2324050  43.7099990
  36.2648480  83.1942250  45.1929460  40.5714800  72.8324450  39.5641190
  40.1282950  73.6133990  39.2325710  41.1299790  73.1554340  40.2712130
  44.8584610  75.6992970  45.1676510  44.3963980  75.9075990  45.9796450
  44.4562720  74.8852320  44.8647180  49.8589120  76.9201920  46.2973170
  49.0082710  76.6207670  46.6182240  49.6990910  77.1643930  45.3856990
  46.9538830  78.4203670  48.3971960  47.2792240  77.5867420  48.0574190
  47.7419160  78.9432190  48.5450290  43.6873620  72.4535150  34.4447020
  43.0627800  72.4495020  35.1700330  43.6003740  71.5866110  34.0482990
  42.6090700  73.3771780  41.4230790  42.9063030  74.2834610  41.3422810
  43.1576260  72.8890560  40.8090360  40.3629020  77.9558020  37.2922440
  40.1369940  77.7395190  38.1969060  39.5821550  78.3886480  36.9468410
  47.5926780  77.9621390  35.8913090  46.9935670  78.6857190  35.7076710
  48.1406390  77.8998170  35.1089540  42.8028230  78.8543600  47.9582710
  42.7071830  77.9138330  47.8083110  43.6460210  79.0758670  47.5630780
  46.1991650  76.5984930  37.9216370  46.5921220  76.9157130  37.1085060
  46.5608500  75.7196810  38.0360890  37.9338770  75.2657270  46.1116490
  37.5402160  76.1132480  46.3189270  37.2457170  74.6283640  46.3025130
  44.5083820  75.3492240  49.1813230  43.8182140  75.1564440  49.8159320
  45.2516120  75.6326880  49.7137530  35.2355820  73.1885730  40.1446570
  34.9468870  73.7588590  40.8571550  35.9801580  72.7090180  40.5077800
  35.4226050  77.1305850  31.3549290  35.3400720  78.0736610  31.4964280
  35.0709110  76.9880760  30.4761640  46.7846790  79.1890680  42.0167150
  46.0527910  79.6977490  42.3657250  46.3871130  78.3720660  41.7155930
  43.2224180  75.8644880  40.4219640  43.2260240  75.4234830  39.5724180
  44.1175300  76.1862210  40.5291460  39.0726560  75.7471370  39.3813850
  38.7326610  76.2246600  40.1380900  38.3103880  75.2936490  39.0214950
  43.2844330  76.8656960  33.4126400  43.4057150  76.8243440  34.3612220
  42.8992840  77.7281110  33.2573130  47.2472700  74.6424360  41.4290090
  47.2645440  75.0933010  42.2731940  46.9988280  73.7430000  41.6423530
  42.2965830  79.1758100  32.8109700  41.7282730  78.7276350  32.1845610
  43.0054830  79.5350880  32.2774850  50.6743450  72.0556540  47.2676470
  50.9989220  71.3246200  47.7934450  50.7099960  71.7370180  46.3657460
  37.3735010  83.0770120  46.6876430  36.9889800  82.4363790  47.2859390
  37.6847200  83.7806240  47.2571160  43.5232150  79.9246660  42.1685050
  43.8902280  79.4505230  42.9146390  43.3337210  80.7988230  42.5093390
  36.3872640  74.6690350  38.2978520  36.1019560  74.3046020  39.1357140
  36.3251500  73.9370810  37.6841660  41.3131520  78.9655300  44.4869260
  41.0088590  79.8447280  44.7119620  42.2677980  79.0255090  44.5226700
  39.8413310  83.1716290  35.0836110  39.0675570  82.6313910  34.9234830
  40.5707940  82.6522900  34.7453870  50.6001290  82.1681650  40.8762500
  51.3200410  82.6636940  40.4858610  50.3983110  81.4899540  40.2316370
  46.0611230  73.5619610  35.0191890  45.2475840  73.0632780  34.9437200
  45.8673180  74.4017860  34.6028240  45.9820090  82.2390710  46.7631500
  45.9157400  81.3186380  46.5089090  45.3525230  82.3366150  47.4776140
  48.7759620  77.9339260  33.3154050  49.6639240  78.2456490  33.1405390
  48.7464710  77.0611510  32.9234630  39.8850710  82.8396670  38.7214920
  40.4029380  82.0364930  38.6671810  39.4334730  82.7775810  39.5631750
  37.3695250  79.8058040  45.6340620  37.0110190  80.4711890  46.2213960
  37.0749810  78.9741590  46.0053240  40.5708370  80.2642280  48.5180170
  40.2708510  80.4099460  47.6207990  41.3419610  79.7047570  48.4253560
  51.0473890  79.2451100  32.7833910  50.9637610  79.6765320  31.9330350
  51.7668080  79.7049450  33.2160730  52.1248030  81.7018620  45.8603880
  51.3996220  82.2947400  45.6633270  52.6523490  81.6942160  45.0617250
  47.6547620  83.4278790  39.3587730  48.0071440  82.8306920  38.6989100
  46.7709950  83.1023020  39.5295980  35.8803300  79.8049300  32.2575220
  36.7498150  80.0874100  32.5411140  35.3893620  80.6185170  32.1424030
  43.0438110  81.1922510  36.3783500  43.5000890  82.0027760  36.6043690
  42.6926320  80.8745650  37.2101990  38.9449890  71.5360160  36.8506020
  38.8164520  71.5278060  37.7990940  38.1211910  71.8743250  36.4997030
  35.9443820  73.2951280  46.3112720  35.2302340  73.4948200  46.9165330
  36.3638860  72.5190850  46.6827520  50.0474770  82.9081760  33.7106550
  49.7596470  83.3694450  34.4984430  50.8426940  82.4479530  33.9790770
  37.8649810  81.6222770  34.3857280  37.2577760  82.3621670  34.3952580
  38.3399160  81.7122130  33.5595480  47.4382600  75.7873590  44.0614170
  47.8063420  74.9668800  44.3893740  46.5780800  75.8475480  44.4769820
  50.8044630  74.7430530  34.8701730  50.1757790  74.8476200  34.1559960
  50.3096550  74.9627310  35.6595610  42.7728660  77.0216480  36.2859610
  42.0644810  77.4902820  36.7273220  43.0573140  76.3638490  36.9204800
  44.3984590  78.4413180  44.2852140  44.8969840  78.9159000  44.9503990
  44.5407540  77.5176700  44.4922170  46.8044090  73.7467140  37.7255400
  46.6811870  73.7653270  36.7764910  47.7528650  73.7946080  37.8453800
  40.9763680  75.3301560  33.6610320  41.8254210  75.7671710  33.5950510
  40.6094950  75.6421820  34.4882380  51.6051450  74.6581140  45.1280530
  51.1025050  75.3986540  45.4674340  52.4208110  75.0465140  44.8117320
  49.8973460  79.9014320  38.5741890  48.9563600  79.9164550  38.7489580
  50.2117530  79.1150280  39.0202190  39.8755100  81.5833920  32.1345850
  40.6418370  81.4715280  32.6971280  39.9529790  80.8871890  31.4822620
  38.5701860  79.0158990  32.8178740  38.6505450  78.0686500  32.9296140
  39.4621610  79.3465870  32.9239400  36.0972660  80.8373910  48.0534910
  36.6011680  80.2581190  48.6251140  35.3580080  81.1214140  48.5911280
  42.9996280  83.5588100  31.6081200  42.8946920  82.9440450  32.3342580
  42.8320500  83.0353990  30.8244210  43.1510600  82.2444900  47.5870430
  42.3856270  82.8129900  47.5025100  43.3326560  81.9521110  46.6938660
  46.2399010  82.6208130  32.2123190  45.6909110  83.0677430  32.8565930
  46.8618270  82.1157380  32.7360860  38.1295740  78.9803500  48.9484980
  38.1701080  78.6817370  49.8570210  38.9841240  79.3811110  48.7892500
  41.9074130  81.5799050  34.1088490  42.3290550  81.4138920  34.9519880
  42.0324970  80.7699280  33.6143630  40.0701550  77.5595600  46.9159470
  39.5398010  77.0686550  46.2882810  40.7389620  77.9879800  46.3817400
  44.4201770  80.6036660  31.3565590  44.9407430  79.8885680  30.9906740
  45.0670170  81.2422530  31.6566100  48.9679610  82.0265060  46.6800660
  49.3820630  82.1810140  47.5291080  48.0330610  82.1520280  46.8426440
  49.4401780  79.3661220  48.6839810  50.0222550  78.6113540  48.5960290
  49.6163550  79.8968660  47.9071290  40.5573850  74.5257970  46.9956760
  40.4630720  73.9078720  46.2707630  39.9771240  75.2524260  46.7686670
  43.3235290  73.0831210  44.0284150  42.8752590  73.1055470  43.1829700
  42.6900490  72.6850230  44.6254450  43.7294840  81.9785540  44.6496590
  44.1482950  82.8218270  44.4772830  42.8103470  82.1157580  44.4203370
  46.0658740  79.7101720  46.0334430  46.1854950  79.1142860  46.7729270
  46.9252740  79.7471410  45.6135730  48.4046640  80.2638910  44.6096940
  47.8781860  80.7881530  44.0062080  48.7477980  80.8966300  45.2406670
  40.8033030  77.6532280  31.0546650  40.6022090  76.7899640  31.4159990
  40.6325080  77.5665640  30.1168250  42.8327510  76.2523070  47.2910250
  43.4227200  75.9438920  47.9788070  42.0147750  75.7802820  47.4470150
  47.6520940  75.8688880  47.5243270  46.9636460  75.2070420  47.4593260
  48.3726960  75.4227150  47.9691730  48.2821340  72.4640510  33.5833530
  48.5623630  71.6208410  33.9392950  47.5087070  72.6963620  34.0972280
  39.6015830  74.7532900  31.0424530  39.9041730  74.7600330  30.1343680
  40.3410420  74.4030760  31.5392190  42.8200760  73.6967520  32.0280730
  42.4722760  73.0191510  31.4483180  43.0213530  73.2357030  32.8424120
  52.6602060  81.7017240  34.1937440  53.4220970  82.2713890  34.2997130
  52.6756430  81.1344440  34.9645750  36.1606400  80.2255170  38.4245100
  35.5055240  79.9566810  37.7804800  36.9984350  80.1159650  37.9747080
  53.6662030  82.5567340  39.0379370  54.0370860  81.7734660  38.6315340
  54.3063960  83.2456440  38.8596670  52.7121230  81.9951610  31.3509960
  52.9870070  82.9030490  31.2229180  52.5231970  81.9314140  32.2871950
  49.1096840  75.0196460  32.6463590  49.5281720  74.8327440  31.8060250
  48.8032900  74.1675510  32.9566520  52.6086570  79.9320600  36.3439390
  52.2330170  79.1648530  35.9120680  51.8789690  80.3143300  36.8314320
  37.1982330  80.6107740  42.9648440  37.5655370  80.5235140  43.8444460
  36.6293150  79.8474290  42.8655300  51.9986190  79.0792120  45.9778910
  51.7672280  78.8504870  45.0776860  52.2590740  79.9991670  45.9323800
  36.7498330  77.5216830  46.8706860  35.8554380  77.4883590  47.2100570
  37.2895880  77.7203620  47.6358110  50.4374260  74.3048550  48.7558610
  51.3144440  74.3131950  49.1392610  50.4495100  73.5679390  48.1450960
  35.3744480  77.4354100  34.3670430  34.4708560  77.6984300  34.1922090
  35.8585100  77.7065270  33.5870390  51.8837530  78.1578090  39.6446630
  52.4075010  77.6640740  39.0136800  52.4696950  78.2928450  40.3894200
  52.0627250  78.2417960  43.1666180  51.1129960  78.2081500  43.2811170
  52.2440260  79.1518070  42.9315950  37.9171690  76.4919640  32.2764810
  38.6263390  76.0702860  31.7912090  37.2011630  76.5594870  31.6448160
  37.5645850  72.5458970  31.3167460  38.2873980  73.0867910  31.6348680
  37.8370370  72.2722390  30.4409000  51.3737500  77.4151440  35.5839040
  51.8696620  77.1822310  36.3687920  51.1753570  76.5763280  35.1676680
  52.8024660  76.0512390  38.1176720  52.6923940  75.8968430  39.0558990
  53.5632250  75.5233330  37.8752130  51.1490380  71.9906520  44.5759720
  51.7862600  72.6040660  44.9418910  51.2965270  72.0267180  43.6308950
  53.6914930  73.8820310  31.3582860  54.6164240  73.7501490  31.1501150
  53.6690720  73.9613130  32.3119310  53.7653420  74.6530970  33.9839570
  52.9704920  74.5876090  34.5132480  53.9696700  75.5881610  33.9724920
  44.5194860  73.1432710  47.4834820  44.4583750  73.7354540  48.2330230
  45.4595240  73.0358670  47.3385080  47.1569420  72.8002770  47.1227110
  47.7709830  73.1182060  46.4608190  47.7018980  72.3151360  47.7422970
  37.6790680  71.4797030  47.2366170  38.2273670  71.2985080  46.4732280
  37.7445990  70.6891140  47.7722480  47.8977460  71.3634910  43.4496400
  47.0237300  71.6970020  43.2469330  47.7888210  70.8908090  44.2748270
  48.8049440  73.5705780  44.8338120  48.4762800  72.7557540  44.4539850
  49.7531740  73.5275590  44.7103810  45.6452280  72.2804750  42.3889310
  44.8624070  72.7550250  42.6686070  45.3515210  71.3759580  42.2802490
  50.1973350  72.9827850  40.4338400  50.6381440  72.9272950  39.5860000
  49.9280940  73.8985860  40.5048580  52.0611920  72.6143090  38.4447220
  52.0000320  71.6704310  38.2978240  52.8403950  72.7223180  38.9900680
  36.9892690  72.5852230  34.9103030  37.7472050  72.6981110  34.3367060
  36.5269860  73.4221430  34.8646460  43.5306500  74.6991500  37.9005340
  42.7181010  74.3248390  37.5601220  44.0348140  73.9436580  38.2026530
  48.0331480  71.3633950  39.1388410  48.6360850  71.9354160  39.6136930
  47.2924470  71.9273390  38.9162310  51.1766080  71.7655510  34.4128690
  51.3716710  72.6638960  34.6796120  50.3895950  71.5342590  34.9061640
  39.3617840  73.1116280  33.4505000  39.8910600  72.3246080  33.3212950
  39.9946160  73.7907470  33.6840530  41.5555680  72.8491420  36.5050390
  40.9258420  72.1478730  36.6720520  41.0160820  73.6095550  36.2883550
  41.6811240  72.1275400  48.9402880  41.3995510  72.6309000  48.1763700
  42.0630940  71.3297150  48.5745010  48.2826700  71.5428980  49.5183350
  48.1692150  71.8623590  50.4134870  49.0996440  71.9441490  49.2220630
  47.1884850  79.5621450  19.8818090  47.1078900  78.6476060  19.6109800
  46.7749270  80.0588520  19.1757800  45.3202890  81.3400470  21.7627360
  44.5444990  80.8600910  22.0525930  45.9715820  80.6606120  21.5883520
  39.3368720  81.6520280  22.6403120  38.5053600  81.3968990  23.0399630
  39.9449700  81.7231050  23.3761040  37.7460670  76.6122170  16.4245510
  36.8577370  76.9538140  16.3225390  38.0301860  76.4122490  15.5326340
  35.7093680  79.2127820  22.3085210  36.2809790  78.4450020  22.3088850
  35.7095220  79.5116580  21.3991820  44.7611880  84.0157660  21.7697520
  44.6920160  83.0747600  21.6086650  45.5231740  84.1059070  22.3420090
  36.9518550  74.6212180  24.0954140  36.7721390  73.7237930  24.3756900
  36.5498630  75.1684050  24.7701090  45.7917050  76.8228040  21.9966450
  46.1681870  75.9499920  21.8840120  45.6936560  77.1586740  21.1056890
  39.9222060  75.1953670  17.4583890  40.0288810  76.0957400  17.7652650
  39.0114420  75.1471640  17.1678540  49.5741170  74.3178480  18.9294790
  50.3950790  73.8275050  18.9720270  49.6075250  74.9076140  19.6826630
  37.5705220  77.1172680  22.7036480  38.2515330  77.3811050  23.3223880
  37.2553270  76.2773550  23.0374490  41.7629790  78.1640040  21.7909070
  42.2708010  78.6621010  22.4314090  42.2943030  77.3875240  21.6148430
  53.8640720  76.3345230  25.4938420  53.1592890  76.7226940  24.9753530
  54.1298640  77.0295520  26.0959350  40.0465890  72.8038600  26.0572490
  40.0484330  73.3210990  25.2518390  39.2170200  72.3268780  26.0342420
  46.4336980  82.9157910  17.5562390  45.8154250  83.3807360  16.9925110
  46.9460230  83.6085390  17.9731900  41.2968740  82.4433780  24.2345990
  40.9638120  83.0702700  24.8767060  41.4735420  82.9695660  23.4547660
  49.8102650  76.2578860  21.7022330  49.1058220  76.5463750  22.2825440
  50.1714810  77.0678970  21.3421890  39.7281220  74.5148560  24.0642940
  40.0698030  75.3590610  23.7696810  38.7897030  74.6632300  24.1808280
  52.8789570  75.7033650  22.0931540  51.9314480  75.7372630  22.2246970
  53.2039560  76.5172600  22.4780900  43.4109110  72.0030830  20.3887530
  43.7184090  71.4477720  19.6723030  42.4809810  72.1375290  20.2060520
  48.3609610  82.6227960  24.0077600  48.7778400  82.4088070  23.1731060
  49.0849430  82.8800750  24.5786220  45.7989870  80.0679660  17.1247650
  44.8719150  80.0017040  17.3536120  45.9514690  81.0059790  17.0102890
  45.7858950  76.3396660  14.1214810  44.8462620  76.5010620  14.2067270
  46.1042210  77.0582340  13.5750800  52.3071710  81.0215180  24.0993840
  51.4790340  81.0908270  23.6243970  52.9022190  81.6069490  23.6309670
  49.8287160  81.6299960  17.6282900  49.2099580  81.2919510  16.9809200
  49.8111610  80.9859720  18.3362090  49.2713720  77.8084500  25.0448710
  48.8584900  78.6338210  25.2988700  48.5389670  77.2229540  24.8525070
  41.4046510  80.5944400  19.9067380  41.0003510  79.8821650  19.4113280
  41.4909630  80.2497640  20.7955420  40.1175130  77.3687610  23.6866420
  40.6689720  77.4782950  22.9119670  40.6318640  77.7425210  24.4021650
  48.0051860  80.8686770  14.6355650  48.4445140  80.0309200  14.4893470
  48.7180280  81.5016170  14.7219790  39.7917860  80.8906970  27.2971760
  39.6525630  81.7629770  27.6659160  38.9099220  80.5479780  27.1519700
  51.5869000  72.1229580  12.9496690  51.2741660  72.2156410  13.8495760
  52.3481470  72.7010610  12.8994120  38.1051140  79.4889380  17.4074030
  37.9848740  80.2151470  16.7955300  37.7952030  78.7192290  16.9301940
  35.7436510  82.6604520  23.2142670  35.8216930  82.7953290  22.2698390
  36.3578190  81.9520410  23.4070790  52.7970290  76.8601080  28.9270830
  52.1814560  77.3680750  28.3986290  52.4766710  75.9599410  28.8696770
  35.7996030  83.7018690  25.7537130  35.9627070  83.2324050  24.9356500
  36.2648480  83.1942250  26.4185970  40.5714800  72.8324450  20.7897700
  40.1282950  73.6133990  20.4582220  41.1299790  73.1554340  21.4968640
  44.8584610  75.6992970  26.3933020  44.3963980  75.9075990  27.2052960
  44.4562720  74.8852320  26.0903690  49.8589120  76.9201920  27.5229680
  49.0082710  76.6207670  27.8438750  49.6990910  77.1643930  26.6113500
  46.9538830  78.4203670  29.6228470  47.2792240  77.5867420  29.2830700
  47.7419160  78.9432190  29.7706800  43.6873620  72.4535150  15.6703530
  43.0627800  72.4495020  16.3956840  43.6003740  71.5866110  15.2739500
  42.6090700  73.3771780  22.6487300  42.9063030  74.2834610  22.5679320
  43.1576260  72.8890560  22.0346870  40.3629020  77.9558020  18.5178950
  40.1369940  77.7395190  19.4225570  39.5821550  78.3886480  18.1724920
  47.5926780  77.9621390  17.1169600  46.9935670  78.6857190  16.9333220
  48.1406390  77.8998170  16.3346050  42.8028230  78.8543600  29.1839220
  42.7071830  77.9138330  29.0339620  43.6460210  79.0758670  28.7887290
  46.1991650  76.5984930  19.1472880  46.5921220  76.9157130  18.3341570
  46.5608500  75.7196810  19.2617400  37.9338770  75.2657270  27.3373000
  37.5402160  76.1132480  27.5445780  37.2457170  74.6283640  27.5281640
  44.5083820  75.3492240  30.4069740  43.8182140  75.1564440  31.0415830
  45.2516120  75.6326880  30.9394040  35.2355820  73.1885730  21.3703080
  34.9468870  73.7588590  22.0828060  35.9801580  72.7090180  21.7334310
  35.4226050  77.1305850  12.5805800  35.3400720  78.0736610  12.7220790
  35.0709110  76.9880760  11.7018150  46.7846790  79.1890680  23.2423660
  46.0527910  79.6977490  23.5913760  46.3871130  78.3720660  22.9412440
  43.2224180  75.8644880  21.6476150  43.2260240  75.4234830  20.7980690
  44.1175300  76.1862210  21.7547970  39.0726560  75.7471370  20.6070360
  38.7326610  76.2246600  21.3637410  38.3103880  75.2936490  20.2471460
  43.2844330  76.8656960  14.6382910  43.4057150  76.8243440  15.5868730
  42.8992840  77.7281110  14.4829640  47.2472700  74.6424360  22.6546600
  47.2645440  75.0933010  23.4988450  46.9988280  73.7430000  22.8680040
  42.2965830  79.1758100  14.0366210  41.7282730  78.7276350  13.4102120
  43.0054830  79.5350880  13.5031360  50.6743450  72.0556540  28.4932980
  50.9989220  71.3246200  29.0190960  50.7099960  71.7370180  27.5913970
  37.3735010  83.0770120  27.9132940  36.9889800  82.4363790  28.5115900
  37.6847200  83.7806240  28.4827670  43.5232150  79.9246660  23.3941560
  43.8902280  79.4505230  24.1402900  43.3337210  80.7988230  23.7349900
  36.3872640  74.6690350  19.5235030  36.1019560  74.3046020  20.3613650
  36.3251500  73.9370810  18.9098170  41.3131520  78.9655300  25.7125770
  41.0088590  79.8447280  25.9376130  42.2677980  79.0255090  25.7483210
  39.8413310  83.1716290  16.3092620  39.0675570  82.6313910  16.1491340
  40.5707940  82.6522900  15.9710380  50.6001290  82.1681650  22.1019010
  51.3200410  82.6636940  21.7115120  50.3983110  81.4899540  21.4572880
  46.0611230  73.5619610  16.2448400  45.2475840  73.0632780  16.1693710
  45.8673180  74.4017860  15.8284750  45.9820090  82.2390710  27.9888010
  45.9157400  81.3186380  27.7345600  45.3525230  82.3366150  28.7032650
  48.7759620  77.9339260  14.5410560  49.6639240  78.2456490  14.3661900
  48.7464710  77.0611510  14.1491140  39.8850710  82.8396670  19.9471430
  40.4029380  82.0364930  19.8928320  39.4334730  82.7775810  20.7888260
  37.3695250  79.8058040  26.8597130  37.0110190  80.4711890  27.4470470
  37.0749810  78.9741590  27.2309750  40.5708370  80.2642280  29.7436680
  40.2708510  80.4099460  28.8464500  41.3419610  79.7047570  29.6510070
  51.0473890  79.2451100  14.0090420  50.9637610  79.6765320  13.1586860
  51.7668080  79.7049450  14.4417240  52.1248030  81.7018620  27.0860390
  51.3996220  82.2947400  26.8889780  52.6523490  81.6942160  26.2873760
  47.6547620  83.4278790  20.5844240  48.0071440  82.8306920  19.9245610
  46.7709950  83.1023020  20.7552490  35.8803300  79.8049300  13.4831730
  36.7498150  80.0874100  13.7667650  35.3893620  80.6185170  13.3680540
  43.0438110  81.1922510  17.6040010  43.5000890  82.0027760  17.8300200
  42.6926320  80.8745650  18.4358500  38.9449890  71.5360160  18.0762530
  38.8164520  71.5278060  19.0247450  38.1211910  71.8743250  17.7253540
  35.9443820  73.2951280  27.5369230  35.2302340  73.4948200  28.1421840
  36.3638860  72.5190850  27.9084030  50.0474770  82.9081760  14.9363060
  49.7596470  83.3694450  15.7240940  50.8426940  82.4479530  15.2047280
  37.8649810  81.6222770  15.6113790  37.2577760  82.3621670  15.6209090
  38.3399160  81.7122130  14.7851990  47.4382600  75.7873590  25.2870680
  47.8063420  74.9668800  25.6150250  46.5780800  75.8475480  25.7026330
  50.8044630  74.7430530  16.0958240  50.1757790  74.8476200  15.3816470
  50.3096550  74.9627310  16.8852120  42.7728660  77.0216480  17.5116120
  42.0644810  77.4902820  17.9529730  43.0573140  76.3638490  18.1461310
  44.3984590  78.4413180  25.5108650  44.8969840  78.9159000  26.1760500
  44.5407540  77.5176700  25.7178680  46.8044090  73.7467140  18.9511910
  46.6811870  73.7653270  18.0021420  47.7528650  73.7946080  19.0710310
  40.9763680  75.3301560  14.8866830  41.8254210  75.7671710  14.8207020
  40.6094950  75.6421820  15.7138890  51.6051450  74.6581140  26.3537040
  51.1025050  75.3986540  26.6930850  52.4208110  75.0465140  26.0373830
  49.8973460  79.9014320  19.7998400  48.9563600  79.9164550  19.9746090
  50.2117530  79.1150280  20.2458700  39.8755100  81.5833920  13.3602360
  40.6418370  81.4715280  13.9227790  39.9529790  80.8871890  12.7079130
  38.5701860  79.0158990  14.0435250  38.6505450  78.0686500  14.1552650
  39.4621610  79.3465870  14.1495910  36.0972660  80.8373910  29.2791420
  36.6011680  80.2581190  29.8507650  35.3580080  81.1214140  29.8167790
  42.9996280  83.5588100  12.8337710  42.8946920  82.9440450  13.5599090
  42.8320500  83.0353990  12.0500720  43.1510600  82.2444900  28.8126940
  42.3856270  82.8129900  28.7281610  43.3326560  81.9521110  27.9195170
  46.2399010  82.6208130  13.4379700  45.6909110  83.0677430  14.0822440
  46.8618270  82.1157380  13.9617370  38.1295740  78.9803500  30.1741490
  38.1701080  78.6817370  31.0826720  38.9841240  79.3811110  30.0149010
  41.9074130  81.5799050  15.3345000  42.3290550  81.4138920  16.1776390
  42.0324970  80.7699280  14.8400140  40.0701550  77.5595600  28.1415980
  39.5398010  77.0686550  27.5139320  40.7389620  77.9879800  27.6073910
  44.4201770  80.6036660  12.5822100  44.9407430  79.8885680  12.2163250
  45.0670170  81.2422530  12.8822610  48.9679610  82.0265060  27.9057170
  49.3820630  82.1810140  28.7547590  48.0330610  82.1520280  28.0682950
  49.4401780  79.3661220  29.9096320  50.0222550  78.6113540  29.8216800
  49.6163550  79.8968660  29.1327800  40.5573850  74.5257970  28.2213270
  40.4630720  73.9078720  27.4964140  39.9771240  75.2524260  27.9943180
  43.3235290  73.0831210  25.2540660  42.8752590  73.1055470  24.4086210
  42.6900490  72.6850230  25.8510960  43.7294840  81.9785540  25.8753100
  44.1482950  82.8218270  25.7029340  42.8103470  82.1157580  25.6459880
  46.0658740  79.7101720  27.2590940  46.1854950  79.1142860  27.9985780
  46.9252740  79.7471410  26.8392240  48.4046640  80.2638910  25.8353450
  47.8781860  80.7881530  25.2318590  48.7477980  80.8966300  26.4663180
  40.8033030  77.6532280  12.2803160  40.6022090  76.7899640  12.6416500
  40.6325080  77.5665640  11.3424760  42.8327510  76.2523070  28.5166760
  43.4227200  75.9438920  29.2044580  42.0147750  75.7802820  28.6726660
  47.6520940  75.8688880  28.7499780  46.9636460  75.2070420  28.6849770
  48.3726960  75.4227150  29.1948240  48.2821340  72.4640510  14.8090040
  48.5623630  71.6208410  15.1649460  47.5087070  72.6963620  15.3228790
  39.6015830  74.7532900  12.2681040  39.9041730  74.7600330  11.3600190
  40.3410420  74.4030760  12.7648700  42.8200760  73.6967520  13.2537240
  42.4722760  73.0191510  12.6739690  43.0213530  73.2357030  14.0680630
  52.6602060  81.7017240  15.4193950  53.4220970  82.2713890  15.5253640
  52.6756430  81.1344440  16.1902260  36.1606400  80.2255170  19.6501610
  35.5055240  79.9566810  19.0061310  36.9984350  80.1159650  19.2003590
  53.6662030  82.5567340  20.2635880  54.0370860  81.7734660  19.8571850
  54.3063960  83.2456440  20.0853180  52.7121230  81.9951610  12.5766470
  52.9870070  82.9030490  12.4485690  52.5231970  81.9314140  13.5128460
  49.1096840  75.0196460  13.8720100  49.5281720  74.8327440  13.0316760
  48.8032900  74.1675510  14.1823030  52.6086570  79.9320600  17.5695900
  52.2330170  79.1648530  17.1377190  51.8789690  80.3143300  18.0570830
  37.1982330  80.6107740  24.1904950  37.5655370  80.5235140  25.0700970
  36.6293150  79.8474290  24.0911810  51.9986190  79.0792120  27.2035420
  51.7672280  78.8504870  26.3033370  52.2590740  79.9991670  27.1580310
  36.7498330  77.5216830  28.0963370  35.8554380  77.4883590  28.4357080
  37.2895880  77.7203620  28.8614620  50.4374260  74.3048550  29.9815120
  51.3144440  74.3131950  30.3649120  50.4495100  73.5679390  29.3707470
  35.3744480  77.4354100  15.5926940  34.4708560  77.6984300  15.4178600
  35.8585100  77.7065270  14.8126900  51.8837530  78.1578090  20.8703140
  52.4075010  77.6640740  20.2393310  52.4696950  78.2928450  21.6150710
  52.0627250  78.2417960  24.3922690  51.1129960  78.2081500  24.5067680
  52.2440260  79.1518070  24.1572460  37.9171690  76.4919640  13.5021320
  38.6263390  76.0702860  13.0168600  37.2011630  76.5594870  12.8704670
  37.5645850  72.5458970  12.5423970  38.2873980  73.0867910  12.8605190
  37.8370370  72.2722390  11.6665510  51.3737500  77.4151440  16.8095550
  51.8696620  77.1822310  17.5944430  51.1753570  76.5763280  16.3933190
  37.2538040  71.7965160  22.4446590  37.9014230  71.2462540  22.0041750
  37.6739880  72.0508310  23.2662400  52.8024660  76.0512390  19.3433230
  52.6923940  75.8968430  20.2815500  53.5632250  75.5233330  19.1008640
  51.1490380  71.9906520  25.8016230  51.7862600  72.6040660  26.1675420
  51.2965270  72.0267180  24.8565460  53.6914930  73.8820310  12.5839370
  54.6164240  73.7501490  12.3757660  53.6690720  73.9613130  13.5375820
  53.7653420  74.6530970  15.2096080  52.9704920  74.5876090  15.7388990
  53.9696700  75.5881610  15.1981430  37.0070040  71.9520830  25.1871910
  36.6584860  72.4084650  25.9530090  36.6757740  71.0577960  25.2694340
  44.5194860  73.1432710  28.7091330  44.4583750  73.7354540  29.4586740
  45.4595240  73.0358670  28.5641590  47.1569420  72.8002770  28.3483620
  47.7709830  73.1182060  27.6864700  47.7018980  72.3151360  28.9679480
  37.6790680  71.4797030  28.4622680  38.2273670  71.2985080  27.6988790
  37.7445990  70.6891140  28.9978990  47.8977460  71.3634910  24.6752910
  47.0237300  71.6970020  24.4725840  47.7888210  70.8908090  25.5004780
  48.8049440  73.5705780  26.0594630  48.4762800  72.7557540  25.6796360
  49.7531740  73.5275590  25.9360320  45.6452280  72.2804750  23.6145820
  44.8624070  72.7550250  23.8942580  45.3515210  71.3759580  23.5059000
  50.1973350  72.9827850  21.6594910  50.6381440  72.9272950  20.8116510
  49.9280940  73.8985860  21.7305090  52.0611920  72.6143090  19.6703730
  52.0000320  71.6704310  19.5234750  52.8403950  72.7223180  20.2157190
  36.9892690  72.5852230  16.1359540  37.7472050  72.6981110  15.5623570
  36.5269860  73.4221430  16.0902970  43.5306500  74.6991500  19.1261850
  42.7181010  74.3248390  18.7857730  44.0348140  73.9436580  19.4283040
  48.0331480  71.3633950  20.3644920  48.6360850  71.9354160  20.8393440
  47.2924470  71.9273390  20.1418820  51.1766080  71.7655510  15.6385200
  51.3716710  72.6638960  15.9052630  50.3895950  71.5342590  16.1318150
  39.3617840  73.1116280  14.6761510  39.8910600  72.3246080  14.5469460
  39.9946160  73.7907470  14.9097040  41.5555680  72.8491420  17.7306900
  40.9258420  72.1478730  17.8977030  41.0160820  73.6095550  17.5140060
  41.6811240  72.1275400  30.1659390  41.3995510  72.6309000  29.4020210
  42.0630940  71.3297150  29.8001520  48.2826700  71.5428980  30.7439860
  48.1692150  71.8623590  31.6391380  49.0996440  71.9441490  30.4477140
  45.3202890  81.3400470   2.9883870  44.5444990  80.8600910   3.2782440
  45.9715820  80.6606120   2.8140030  39.3368720  81.6520280   3.8659630
  38.5053600  81.3968990   4.2656140  39.9449700  81.7231050   4.6017550
  35.7093680  79.2127820   3.5341720  36.2809790  78.4450020   3.5345360
  35.7095220  79.5116580   2.6248330  44.7611880  84.0157660   2.9954030
  44.6920160  83.0747600   2.8343160  45.5231740  84.1059070   3.5676600
  36.9518550  74.6212180   5.3210650  36.7721390  73.7237930   5.6013410
  36.5498630  75.1684050   5.9957600  45.7917050  76.8228040   3.2222960
  46.1681870  75.9499920   3.1096630  45.6936560  77.1586740   2.3313400
  37.5705220  77.1172680   3.9292990  38.2515330  77.3811050   4.5480390
  37.2553270  76.2773550   4.2631000  41.7629790  78.1640040   3.0165580
  42.2708010  78.6621010   3.6570600  42.2943030  77.3875240   2.8404940
  53.8640720  76.3345230   6.7194930  53.1592890  76.7226940   6.2010040
  54.1298640  77.0295520   7.3215860  40.0465890  72.8038600   7.2829000
  40.0484330  73.3210990   6.4774900  39.2170200  72.3268780   7.2598930
  41.2968740  82.4433780   5.4602500  40.9638120  83.0702700   6.1023570
  41.4735420  82.9695660   4.6804170  49.8102650  76.2578860   2.9278840
  49.1058220  76.5463750   3.5081950  50.1714810  77.0678970   2.5678400
  39.7281220  74.5148560   5.2899450  40.0698030  75.3590610   4.9953320
  38.7897030  74.6632300   5.4064790  52.8789570  75.7033650   3.3188050
  51.9314480  75.7372630   3.4503480  53.2039560  76.5172600   3.7037410
  48.3609610  82.6227960   5.2334110  48.7778400  82.4088070   4.3987570
  49.0849430  82.8800750   5.8042730  52.3071710  81.0215180   5.3250350
  51.4790340  81.0908270   4.8500480  52.9022190  81.6069490   4.8566180
  49.2713720  77.8084500   6.2705220  48.8584900  78.6338210   6.5245210
  48.5389670  77.2229540   6.0781580  40.1175130  77.3687610   4.9122930
  40.6689720  77.4782950   4.1376180  40.6318640  77.7425210   5.6278160
  39.7917860  80.8906970   8.5228270  39.6525630  81.7629770   8.8915670
  38.9099220  80.5479780   8.3776210  35.7436510  82.6604520   4.4399180
  35.8216930  82.7953290   3.4954900  36.3578190  81.9520410   4.6327300
  52.7970290  76.8601080  10.1527340  52.1814560  77.3680750   9.6242800
  52.4766710  75.9599410  10.0953280  35.7996030  83.7018690   6.9793640
  35.9627070  83.2324050   6.1613010  36.2648480  83.1942250   7.6442480
  40.5714800  72.8324450   2.0154210  40.1282950  73.6133990   1.6838730
  41.1299790  73.1554340   2.7225150  44.8584610  75.6992970   7.6189530
  44.3963980  75.9075990   8.4309470  44.4562720  74.8852320   7.3160200
  49.8589120  76.9201920   8.7486190  49.0082710  76.6207670   9.0695260
  49.6990910  77.1643930   7.8370010  46.9538830  78.4203670  10.8484980
  47.2792240  77.5867420  10.5087210  47.7419160  78.9432190  10.9963310
  42.6090700  73.3771780   3.8743810  42.9063030  74.2834610   3.7935830
  43.1576260  72.8890560   3.2603380  42.8028230  78.8543600  10.4095730
  42.7071830  77.9138330  10.2596130  43.6460210  79.0758670  10.0143800
  37.9338770  75.2657270   8.5629510  37.5402160  76.1132480   8.7702290
  37.2457170  74.6283640   8.7538150  44.5083820  75.3492240  11.6326250
  43.8182140  75.1564440  12.2672340  45.2516120  75.6326880  12.1650550
  35.2355820  73.1885730   2.5959590  34.9468870  73.7588590   3.3084570
  35.9801580  72.7090180   2.9590820  46.7846790  79.1890680   4.4680170
  46.0527910  79.6977490   4.8170270  46.3871130  78.3720660   4.1668950
  43.2224180  75.8644880   2.8732660  43.2260240  75.4234830   2.0237200
  44.1175300  76.1862210   2.9804480  47.2472700  74.6424360   3.8803110
  47.2645440  75.0933010   4.7244960  46.9988280  73.7430000   4.0936550
  50.6743450  72.0556540   9.7189490  50.9989220  71.3246200  10.2447470
  50.7099960  71.7370180   8.8170480  37.3735010  83.0770120   9.1389450
  36.9889800  82.4363790   9.7372410  37.6847200  83.7806240   9.7084180
  43.5232150  79.9246660   4.6198070  43.8902280  79.4505230   5.3659410
  43.3337210  80.7988230   4.9606410  41.3131520  78.9655300   6.9382280
  41.0088590  79.8447280   7.1632640  42.2677980  79.0255090   6.9739720
  50.6001290  82.1681650   3.3275520  51.3200410  82.6636940   2.9371630
  50.3983110  81.4899540   2.6829390  45.9820090  82.2390710   9.2144520
  45.9157400  81.3186380   8.9602110  45.3525230  82.3366150   9.9289160
  37.3695250  79.8058040   8.0853640  37.0110190  80.4711890   8.6726980
  37.0749810  78.9741590   8.4566260  40.5708370  80.2642280  10.9693190
  40.2708510  80.4099460  10.0721010  41.3419610  79.7047570  10.8766580
  52.1248030  81.7018620   8.3116900  51.3996220  82.2947400   8.1146290
  52.6523490  81.6942160   7.5130270  35.9443820  73.2951280   8.7625740
  35.2302340  73.4948200   9.3678350  36.3638860  72.5190850   9.1340540
  47.4382600  75.7873590   6.5127190  47.8063420  74.9668800   6.8406760
  46.5780800  75.8475480   6.9282840  44.3984590  78.4413180   6.7365160
  44.8969840  78.9159000   7.4017010  44.5407540  77.5176700   6.9435190
  51.6051450  74.6581140   7.5793550  51.1025050  75.3986540   7.9187360
  52.4208110  75.0465140   7.2630340  36.0972660  80.8373910  10.5047930
  36.6011680  80.2581190  11.0764160  35.3580080  81.1214140  11.0424300
  43.1510600  82.2444900  10.0383450  42.3856270  82.8129900   9.9538120
  43.3326560  81.9521110   9.1451680  38.1295740  78.9803500  11.3998000
  38.1701080  78.6817370  12.3083230  38.9841240  79.3811110  11.2405520
  40.0701550  77.5595600   9.3672490  39.5398010  77.0686550   8.7395830
  40.7389620  77.9879800   8.8330420  48.9679610  82.0265060   9.1313680
  49.3820630  82.1810140   9.9804100  48.0330610  82.1520280   9.2939460
  49.4401780  79.3661220  11.1352830  50.0222550  78.6113540  11.0473310
  49.6163550  79.8968660  10.3584310  40.5573850  74.5257970   9.4469780
  40.4630720  73.9078720   8.7220650  39.9771240  75.2524260   9.2199690
  43.3235290  73.0831210   6.4797170  42.8752590  73.1055470   5.6342720
  42.6900490  72.6850230   7.0767470  43.7294840  81.9785540   7.1009610
  44.1482950  82.8218270   6.9285850  42.8103470  82.1157580   6.8716390
  46.0658740  79.7101720   8.4847450  46.1854950  79.1142860   9.2242290
  46.9252740  79.7471410   8.0648750  48.4046640  80.2638910   7.0609960
  47.8781860  80.7881530   6.4575100  48.7477980  80.8966300   7.6919690
  42.8327510  76.2523070   9.7423270  43.4227200  75.9438920  10.4301090
  42.0147750  75.7802820   9.8983170  47.6520940  75.8688880   9.9756290
  46.9636460  75.2070420   9.9106280  48.3726960  75.4227150  10.4204750
  37.1982330  80.6107740   5.4161460  37.5655370  80.5235140   6.2957480
  36.6293150  79.8474290   5.3168320  51.9986190  79.0792120   8.4291930
  51.7672280  78.8504870   7.5289880  52.2590740  79.9991670   8.3836820
  36.7498330  77.5216830   9.3219880  35.8554380  77.4883590   9.6613590
  37.2895880  77.7203620  10.0871130  50.4374260  74.3048550  11.2071630
  51.3144440  74.3131950  11.5905630  50.4495100  73.5679390  10.5963980
  52.0627250  78.2417960   5.6179200  51.1129960  78.2081500   5.7324190
  52.2440260  79.1518070   5.3828970  37.2538040  71.7965160   3.6703100
  37.9014230  71.2462540   3.2298260  37.6739880  72.0508310   4.4918910
  51.1490380  71.9906520   7.0272740  51.7862600  72.6040660   7.3931930
  51.2965270  72.0267180   6.0821970  37.0070040  71.9520830   6.4128420
  36.6584860  72.4084650   7.1786600  36.6757740  71.0577960   6.4950850
  44.5194860  73.1432710   9.9347840  44.4583750  73.7354540  10.6843250
  45.4595240  73.0358670   9.7898100  47.1569420  72.8002770   9.5740130
  47.7709830  73.1182060   8.9121210  47.7018980  72.3151360  10.1935990
  37.6790680  71.4797030   9.6879190  38.2273670  71.2985080   8.9245300
  37.7445990  70.6891140  10.2235500  47.8977460  71.3634910   5.9009420
  47.0237300  71.6970020   5.6982350  47.7888210  70.8908090   6.7261290
  48.8049440  73.5705780   7.2851140  48.4762800  72.7557540   6.9052870
  49.7531740  73.5275590   7.1616830  45.6452280  72.2804750   4.8402330
  44.8624070  72.7550250   5.1199090  45.3515210  71.3759580   4.7315510
  50.1973350  72.9827850   2.8851420  50.6381440  72.9272950   2.0373020
  49.9280940  73.8985860   2.9561600  41.6811240  72.1275400  11.3915900
  41.3995510  72.6309000  10.6276720  42.0630940  71.3297150  11.0258030
  48.2826700  71.5428980  11.9696370  48.1692150  71.8623590  12.8647890
  49.0996440  71.9441490  11.6733650  47.1884850  60.7877960  76.2048560
  47.1078900  59.8732570  75.9340270  46.7749270  61.2845030  75.4988270
  45.3202890  62.5656980  78.0857830  44.5444990  62.0857420  78.3756400
  45.9715820  61.8862630  77.9113990  49.3410320  66.9717170  76.8656960
  48.8791850  66.2004410  77.1944130  50.1535870  66.9983240  77.3709410
  37.7460670  57.8378680  72.7475980  36.8577370  58.1794650  72.6455860
  38.0301860  57.6379000  71.8556810  35.7093680  60.4384330  78.6315680
  36.2809790  59.6706530  78.6319320  35.7095220  60.7373090  77.7222290
  45.5673630  69.2575180  76.4860950  44.9485070  69.7132680  75.9155390
  46.4225410  69.4126640  76.0850650  44.7611880  65.2414170  78.0927990
  44.6920160  64.3004110  77.9317120  45.5231740  65.3315580  78.6650560
  45.7917050  58.0484550  78.3196920  46.1681870  57.1756430  78.2070590
  45.6936560  58.3843250  77.4287360  39.9222060  56.4210180  73.7814360
  40.0288810  57.3213910  74.0883120  39.0114420  56.3728150  73.4909010
  49.5741170  55.5434990  75.2525260  50.3950790  55.0531560  75.2950740
  49.6075250  56.1332650  76.0057100  41.7629790  59.3896550  78.1139540
  42.2708010  59.8877520  78.7544560  42.2943030  58.6131750  77.9378900
  46.4336980  64.1414420  73.8792860  45.8154250  64.6063870  73.3155580
  46.9460230  64.8341900  74.2962370  49.8102650  57.4835370  78.0252800
  49.1058220  57.7720260  78.6055910  50.1714810  58.2935480  77.6652360
  35.8020180  64.8270950  71.2532490  35.4248160  65.3158050  70.5217390
  36.0593250  65.4996230  71.8839020  52.8789570  56.9290160  78.4162010
  51.9314480  56.9629140  78.5477440  53.2039560  57.7429110  78.8011370
  43.4109110  53.2287340  76.7118000  43.7184090  52.6734230  75.9953500
  42.4809810  53.3631800  76.5290990  50.2569590  65.6670850  74.0915630
  50.1465920  64.7245180  74.2165050  50.2537840  66.0286490  74.9778390
  45.7989870  61.2936170  73.4478120  44.8719150  61.2273550  73.6766590
  45.9514690  62.2316300  73.3333360  45.7858950  57.5653170  70.4445280
  44.8462620  57.7267130  70.5297740  46.1042210  58.2838850  69.8981270
  49.8287160  62.8556470  73.9513370  49.2099580  62.5176020  73.3039670
  49.8111610  62.2116230  74.6592560  41.4046510  61.8200910  76.2297850
  41.0003510  61.1078160  75.7343750  41.4909630  61.4754150  77.1185890
  41.8728210  65.5068470  78.3937060  41.5756500  64.9013940  77.7144840
  42.8228030  65.5445780  78.2826420  48.0051860  62.0943280  70.9586120
  48.4445140  61.2565710  70.8123940  48.7180280  62.7272680  71.0450260
  46.1147240  67.0339350  74.9267360  46.5543150  67.7763680  74.5122750
  46.0534130  67.2765920  75.8506320  51.5869000  53.3486090  69.2727160
  51.2741660  53.4412920  70.1726230  52.3481470  53.9267120  69.2224590
  38.1051140  60.7145890  73.7304500  37.9848740  61.4407980  73.1185770
  37.7952030  59.9448800  73.2532410  36.9884140  65.5861220  75.9479320
  36.5812220  65.7275810  75.0932920  37.8797150  65.3021380  75.7450530
  48.7817420  70.0208470  72.2830370  48.6218560  69.7311410  73.1812200
  48.6164130  69.2448600  71.7475600  41.2605800  69.8007000  74.0601990
  41.0848280  68.8842540  73.8469790  40.4061540  70.1594290  74.2999790
  48.4843550  67.5296030  70.8428370  47.7908710  67.5273320  70.1830650
  49.2266410  67.1055350  70.4122540  48.0493480  69.1558740  74.9176860
  48.5050430  68.3748120  75.2315480  48.3886000  69.8665560  75.4618040
  40.5714800  54.0580960  77.1128170  40.1282950  54.8390500  76.7812690
  41.1299790  54.3810850  77.8199110  43.6873620  53.6791660  71.9934000
  43.0627800  53.6751530  72.7187310  43.6003740  52.8122620  71.5969970
  40.3629020  59.1814530  74.8409420  40.1369940  58.9651700  75.7456040
  39.5821550  59.6142990  74.4955390  47.5926780  59.1877900  73.4400070
  46.9935670  59.9113700  73.2563690  48.1406390  59.1254680  72.6576520
  46.1991650  57.8241440  75.4703350  46.5921220  58.1413640  74.6572040
  46.5608500  56.9453320  75.5847870  35.2355820  54.4142240  77.6933550
  34.9468870  54.9845100  78.4058530  35.9801580  53.9346690  78.0564780
  35.4226050  58.3562360  68.9036270  35.3400720  59.2993120  69.0451260
  35.0709110  58.2137270  68.0248620  43.2224180  57.0901390  77.9706620
  43.2260240  56.6491340  77.1211160  44.1175300  57.4118720  78.0778440
  39.0726560  56.9727880  76.9300830  38.7326610  57.4503110  77.6867880
  38.3103880  56.5193000  76.5701930  43.2844330  58.0913470  70.9613380
  43.4057150  58.0499950  71.9099200  42.8992840  58.9537620  70.8060110
  42.2965830  60.4014610  70.3596680  41.7282730  59.9532860  69.7332590
  43.0054830  60.7607390  69.8261830  36.3872640  55.8946860  75.8465500
  36.1019560  55.5302530  76.6844120  36.3251500  55.1627320  75.2328640
  39.8413310  64.3972800  72.6323090  39.0675570  63.8570420  72.4721810
  40.5707940  63.8779410  72.2940850  50.6001290  63.3938160  78.4249480
  51.3200410  63.8893450  78.0345590  50.3983110  62.7156050  77.7803350
  46.0611230  54.7876120  72.5678870  45.2475840  54.2889290  72.4924180
  45.8673180  55.6274370  72.1515220  48.7759620  59.1595770  70.8641030
  49.6639240  59.4713000  70.6892370  48.7464710  58.2868020  70.4721610
  39.8850710  64.0653180  76.2701900  40.4029380  63.2621440  76.2158790
  39.4334730  64.0032320  77.1118730  44.7720210  65.3319460  71.5429200
  45.1135910  66.0761690  71.0472520  43.9432920  65.6450580  71.9054030
  51.0473890  60.4707610  70.3320890  50.9637610  60.9021830  69.4817330
  51.7668080  60.9305960  70.7647710  52.0761140  67.3249870  73.0603020
  51.4337300  66.6705490  73.3346740  51.6891800  67.7304960  72.2843690
  47.6547620  64.6535300  76.9074710  48.0071440  64.0563430  76.2476080
  46.7709950  64.3279530  77.0782960  43.7410900  65.4132990  74.3145120
  44.4282030  65.9602200  74.6952710  42.9543320  65.9573720  74.3494730
  35.8803300  61.0305810  69.8062200  36.7498150  61.3130610  70.0898120
  35.3893620  61.8441680  69.6911010  43.0438110  62.4179020  73.9270480
  43.5000890  63.2284270  74.1530670  42.6926320  62.1002160  74.7588970
  38.9449890  52.7616670  74.3993000  38.8164520  52.7534570  75.3477920
  38.1211910  53.0999760  74.0484010  50.4658520  66.2166330  69.5979370
  50.2396100  65.4996770  70.1904010  50.0754720  65.9678770  68.7601120
  36.2474550  70.2433190  70.3723830  36.6072190  70.8422530  69.7181100
  36.1066890  70.7893080  71.1458860  50.0474770  64.1338270  71.2593530
  49.7596470  64.5950960  72.0471410  50.8426940  63.6736040  71.5277750
  42.2643170  67.6264390  71.1897500  42.2553270  68.3594080  70.5742010
  41.3441530  67.3795970  71.2824460  37.8649810  62.8479280  71.9344260
  37.2577760  63.5878180  71.9439560  38.3399160  62.9378640  71.1082460
  50.8044630  55.9687040  72.4188710  50.1757790  56.0732710  71.7046940
  50.3096550  56.1883820  73.2082590  45.2502770  67.6892630  69.8522690
  45.3514750  67.4856620  68.9224670  44.3504510  67.4350910  70.0570470
  42.7728660  58.2472990  73.8346590  42.0644810  58.7159330  74.2760200
  43.0573140  57.5895000  74.4691780  46.8044090  54.9723650  75.2742380
  46.6811870  54.9909780  74.3251890  47.7528650  55.0202590  75.3940780
  43.8920880  70.2078950  74.5470360  44.1462380  70.1700340  73.6249730
  42.9433360  70.0812280  74.5398610  40.9763680  56.5558070  71.2097300
  41.8254210  56.9928220  71.1437490  40.6094950  56.8678330  72.0369360
  49.8973460  61.1270830  76.1228870  48.9563600  61.1421060  76.2976560
  50.2117530  60.3406790  76.5689170  39.8755100  62.8090430  69.6832830
  40.6418370  62.6971790  70.2458260  39.9529790  62.1128400  69.0309600
  38.5701860  60.2415500  70.3665720  38.6505450  59.2943010  70.4783120
  39.4621610  60.5722380  70.4726380  51.8999040  68.2979680  77.7983130
  52.0246460  69.1210850  78.2706940  52.7664600  68.0870410  77.4507280
  39.3716570  70.3910890  77.4700260  40.1079050  69.8426350  77.7408830
  39.7557490  71.2566900  77.3306250  36.2562050  66.4584460  73.3441770
  35.3301830  66.7005600  73.3347180  36.7218480  67.2858720  73.2226520
  42.4818880  69.5641200  69.2925830  43.2747490  69.8530030  68.8407620
  41.9623230  69.1333370  68.6138310  51.5349050  68.7911330  70.7162570
  51.2490560  68.3776470  69.9016750  51.3368600  69.7199040  70.5963090
  42.9996280  64.7844610  69.1568180  42.8946920  64.1696960  69.8829560
  42.8320500  64.2610500  68.3731190  46.2399010  63.8464640  69.7610170
  45.6909110  64.2933940  70.4052910  46.8618270  63.3413890  70.2847840
  41.9074130  62.8055560  71.6575470  42.3290550  62.6395430  72.5006860
  42.0324970  61.9955790  71.1630610  44.4201770  61.8293170  68.9052570
  44.9407430  61.1142190  68.5393720  45.0670170  62.4679040  69.2053080
  40.8033030  58.8788790  68.6033630  40.6022090  58.0156150  68.9646970
  40.6325080  58.7922150  67.6655230  48.2821340  53.6897020  71.1320510
  48.5623630  52.8464920  71.4879930  47.5087070  53.9220130  71.6459260
  39.6015830  55.9789410  68.5911510  39.9041730  55.9856840  67.6830660
  40.3410420  55.6287270  69.0879170  42.8200760  54.9224030  69.5767710
  42.4722760  54.2448020  68.9970160  43.0213530  54.4613540  70.3911100
  44.9849800  69.9104780  71.1954310  45.8800590  70.2489750  71.2173070
  45.0167430  69.1884190  70.5678590  38.6245960  65.2831830  69.4241310
  39.0620830  65.8261500  70.0798890  39.1093690  64.4578780  69.4337650
  35.8391760  68.0720860  76.8761570  36.1694770  67.2041920  76.6440210
  36.2682760  68.2779380  77.7066530  40.4353680  66.4029870  74.5363540
  40.1349220  66.2794840  75.4367450  40.3291170  65.5438460  74.1279270
  53.2045600  66.1826270  69.2390220  52.3738560  66.2502920  69.7097450
  53.3817430  67.0730390  68.9357080  52.6602060  62.9273750  71.7424420
  53.4220970  63.4970400  71.8484110  52.6756430  62.3600950  72.5132730
  36.1606400  61.4511680  75.9732080  35.5055240  61.1823320  75.3291780
  36.9984350  61.3416160  75.5234060  53.6662030  63.7823850  76.5866350
  54.0370860  62.9991170  76.1802320  54.3063960  64.4712950  76.4083650
  52.7121230  63.2208120  68.8996940  52.9870070  64.1287000  68.7716160
  52.5231970  63.1570650  69.8358930  49.1096840  56.2452970  70.1950570
  49.5281720  56.0583950  69.3547230  48.8032900  55.3932020  70.5053500
  52.6086570  61.1577110  73.8926370  52.2330170  60.3905040  73.4607660
  51.8789690  61.5399810  74.3801300  35.3744480  58.6610610  71.9157410
  34.4708560  58.9240810  71.7409070  35.8585100  58.9321780  71.1357370
  51.8837530  59.3834600  77.1933610  52.4075010  58.8897250  76.5623780
  52.4696950  59.5184960  77.9381180  37.9171690  57.7176150  69.8251790
  38.6263390  57.2959370  69.3399070  37.2011630  57.7851380  69.1935140
  37.5645850  53.7715480  68.8654440  38.2873980  54.3124420  69.1835660
  37.8370370  53.4978900  67.9895980  51.3737500  58.6407950  73.1326020
  51.8696620  58.4078820  73.9174900  51.1753570  57.8019790  72.7163660
  52.8024660  57.2768900  75.6663700  52.6923940  57.1224940  76.6045970
  53.5632250  56.7489840  75.4239110  53.6914930  55.1076820  68.9069840
  54.6164240  54.9758000  68.6988130  53.6690720  55.1869640  69.8606290
  53.7653420  55.8787480  71.5326550  52.9704920  55.8132600  72.0619460
  53.9696700  56.8138120  71.5211900  50.7071840  69.9179030  75.5264940
  51.3030910  69.5963600  74.8499360  50.9649990  69.4450850  76.3178210
  50.1973350  54.2084360  77.9825380  50.6381440  54.1529460  77.1346980
  49.9280940  55.1242370  78.0535560  52.0611920  53.8399600  75.9934200
  52.0000320  52.8960820  75.8465220  52.8403950  53.9479690  76.5387660
  36.3664670  69.9791960  74.9558150  36.1986710  69.3462640  75.6540040
  35.4999180  70.1851360  74.6052340  36.9892690  53.8108740  72.4590010
  37.7472050  53.9237620  71.8854040  36.5269860  54.6477940  72.4133440
  43.5306500  55.9248010  75.4492320  42.7181010  55.5504900  75.1088200
  44.0348140  55.1693090  75.7513510  48.0331480  52.5890460  76.6875390
  48.6360850  53.1610670  77.1623910  47.2924470  53.1529900  76.4649290
  51.1766080  52.9912020  71.9615670  51.3716710  53.8895470  72.2283100
  50.3895950  52.7599100  72.4548620  37.9727370  68.6725190  72.4008290
  37.4474990  69.0533220  71.6970250  37.8971950  69.2975960  73.1218000
  39.3617840  54.3372790  70.9991980  39.8910600  53.5502590  70.8699930
  39.9946160  55.0163980  71.2327510  41.5555680  54.0747930  74.0537370
  40.9258420  53.3735240  74.2207500  41.0160820  54.8352060  73.8370530
  52.7292690  70.2312730  73.7222230  52.9044880  69.5450470  73.0783150
  52.0314260  70.7559780  73.3298900  40.5720340  70.6207570  71.2757540
  41.3039160  70.3366850  70.7281430  40.8314010  70.3820850  72.1656920
  39.7335130  66.7372300  71.2803870  39.1044010  67.2057400  71.8289700
  39.8482960  65.8921520  71.7150060  47.1884850  60.7877960  57.4305070
  47.1078900  59.8732570  57.1596780  46.7749270  61.2845030  56.7244780
  45.3202890  62.5656980  59.3114340  44.5444990  62.0857420  59.6012910
  45.9715820  61.8862630  59.1370500  39.3368720  62.8776790  60.1890100
  38.5053600  62.6225500  60.5886610  39.9449700  62.9487560  60.9248020
  49.3410320  66.9717170  58.0913470  48.8791850  66.2004410  58.4200640
  50.1535870  66.9983240  58.5965920  39.3169980  66.9116880  60.3848120
  39.6198020  66.0214620  60.2058340  40.0613570  67.4687100  60.1570370
  37.7460670  57.8378680  53.9732490  36.8577370  58.1794650  53.8712370
  38.0301860  57.6379000  53.0813320  35.7093680  60.4384330  59.8572190
  36.2809790  59.6706530  59.8575830  35.7095220  60.7373090  58.9478800
  45.5673630  69.2575180  57.7117460  44.9485070  69.7132680  57.1411900
  46.4225410  69.4126640  57.3107160  44.7611880  65.2414170  59.3184500
  44.6920160  64.3004110  59.1573630  45.5231740  65.3315580  59.8907070
  36.9518550  55.8468690  61.6441120  36.7721390  54.9494440  61.9243880
  36.5498630  56.3940560  62.3188070  45.7917050  58.0484550  59.5453430
  46.1681870  57.1756430  59.4327100  45.6936560  58.3843250  58.6543870
  39.9222060  56.4210180  55.0070870  40.0288810  57.3213910  55.3139630
  39.0114420  56.3728150  54.7165520  49.5741170  55.5434990  56.4781770
  50.3950790  55.0531560  56.5207250  49.6075250  56.1332650  57.2313610
  37.5705220  58.3429190  60.2523460  38.2515330  58.6067560  60.8710860
  37.2553270  57.5030060  60.5861470  41.7629790  59.3896550  59.3396050
  42.2708010  59.8877520  59.9801070  42.2943030  58.6131750  59.1635410
  53.8640720  57.5601740  63.0425400  53.1592890  57.9483450  62.5240510
  54.1298640  58.2552030  63.6446330  40.0465890  54.0295110  63.6059470
  40.0484330  54.5467500  62.8005370  39.2170200  53.5525290  63.5829400
  46.4336980  64.1414420  55.1049370  45.8154250  64.6063870  54.5412090
  46.9460230  64.8341900  55.5218880  41.2968740  63.6690290  61.7832970
  40.9638120  64.2959210  62.4254040  41.4735420  64.1952170  61.0034640
  49.8102650  57.4835370  59.2509310  49.1058220  57.7720260  59.8312420
  50.1714810  58.2935480  58.8908870  39.7281220  55.7405070  61.6129920
  40.0698030  56.5847120  61.3183790  38.7897030  55.8888810  61.7295260
  40.5087840  65.6371090  63.5982150  41.1261840  66.3122170  63.3166600
  39.6480960  66.0459070  63.5069650  35.8020180  64.8270950  52.4789000
  35.4248160  65.3158050  51.7473900  36.0593250  65.4996230  53.1095530
  51.4265430  67.1010500  61.5136790  50.7428950  67.7709610  61.5053460
  51.9659720  67.2991150  60.7481650  52.8789570  56.9290160  59.6418520
  51.9314480  56.9629140  59.7733950  53.2039560  57.7429110  60.0267880
  43.4109110  53.2287340  57.9374510  43.7184090  52.6734230  57.2210010
  42.4809810  53.3631800  57.7547500  48.9624170  68.9454630  60.2281970
  48.9751330  68.5416920  59.3604230  48.4099390  69.7201920  60.1243400
  50.2569590  65.6670850  55.3172140  50.1465920  64.7245180  55.4421560
  50.2537840  66.0286490  56.2034900  48.3609610  63.8484470  61.5564580
  48.7778400  63.6344580  60.7218040  49.0849430  64.1057260  62.1273200
  45.7989870  61.2936170  54.6734630  44.8719150  61.2273550  54.9023100
  45.9514690  62.2316300  54.5589870  45.7858950  57.5653170  51.6701790
  44.8462620  57.7267130  51.7554250  46.1042210  58.2838850  51.1237780
  52.3071710  62.2471690  61.6480820  51.4790340  62.3164780  61.1730950
  52.9022190  62.8326000  61.1796650  49.8287160  62.8556470  55.1769880
  49.2099580  62.5176020  54.5296180  49.8111610  62.2116230  55.8849070
  49.2713720  59.0341010  62.5935690  48.8584900  59.8594720  62.8475680
  48.5389670  58.4486050  62.4012050  41.4046510  61.8200910  57.4554360
  41.0003510  61.1078160  56.9600260  41.4909630  61.4754150  58.3442400
  41.8728210  65.5068470  59.6193570  41.5756500  64.9013940  58.9401350
  42.8228030  65.5445780  59.5082930  40.1175130  58.5944120  61.2353400
  40.6689720  58.7039460  60.4606650  40.6318640  58.9681720  61.9508630
  49.9613820  69.0800340  63.2816670  49.4844380  69.8872530  63.0889280
  49.2775610  68.4278670  63.4342880  40.9646640  65.2450160  66.2701370
  40.0675170  65.4690130  66.5174770  40.9899510  65.3685100  65.3212770
  48.0051860  62.0943280  52.1842630  48.4445140  61.2565710  52.0380450
  48.7180280  62.7272680  52.2706770  39.7917860  62.1163480  64.8458740
  39.6525630  62.9886280  65.2146140  38.9099220  61.7736290  64.7006680
  46.1147240  67.0339350  56.1523870  46.5543150  67.7763680  55.7379260
  46.0534130  67.2765920  57.0762830  41.5898210  68.0585180  67.0543890
  41.5613640  68.4628130  66.1872320  41.4263180  67.1295540  66.8915490
  38.1051140  60.7145890  54.9561010  37.9848740  61.4407980  54.3442280
  37.7952030  59.9448800  54.4788920  53.5413030  68.8412280  68.3508060
  54.0172750  69.3195170  69.0297140  54.1620190  68.7729770  67.6253560
  35.7436510  63.8861030  60.7629650  35.8216930  64.0209800  59.8185370
  36.3578190  63.1776920  60.9557770  36.9884140  65.5861220  57.1735830
  36.5812220  65.7275810  56.3189430  37.8797150  65.3021380  56.9707040
  52.9446280  66.0325130  65.5108070  53.0709340  65.7937010  64.5925250
  52.9867660  65.2009670  65.9830150  46.8063020  69.7353130  64.0802880
  47.3207690  69.6461140  64.8825310  45.9632100  70.0812830  64.3730790
  48.7817420  70.0208470  53.5086880  48.6218560  69.7311410  54.4068710
  48.6164130  69.2448600  52.9732110  41.2605800  69.8007000  55.2858500
  41.0848280  68.8842540  55.0726300  40.4061540  70.1594290  55.5256300
  48.4843550  67.5296030  52.0684880  47.7908710  67.5273320  51.4087160
  49.2266410  67.1055350  51.6379050  48.0493480  69.1558740  56.1433370
  48.5050430  68.3748120  56.4571990  48.3886000  69.8665560  56.6874550
  52.7970290  58.0857590  66.4757810  52.1814560  58.5937260  65.9473270
  52.4766710  57.1855920  66.4183750  35.7996030  64.9275200  63.3024110
  35.9627070  64.4580560  62.4843480  36.2648480  64.4198760  63.9672950
  40.5714800  54.0580960  58.3384680  40.1282950  54.8390500  58.0069200
  41.1299790  54.3810850  59.0455620  44.8584610  56.9249480  63.9420000
  44.3963980  57.1332500  64.7539940  44.4562720  56.1108830  63.6390670
  49.8589120  58.1458430  65.0716660  49.0082710  57.8464180  65.3925730
  49.6990910  58.3900440  64.1600480  46.9538830  59.6460180  67.1715450
  47.2792240  58.8123930  66.8317680  47.7419160  60.1688700  67.3193780
  43.6873620  53.6791660  53.2190510  43.0627800  53.6751530  53.9443820
  43.6003740  52.8122620  52.8226480  42.6090700  54.6028290  60.1974280
  42.9063030  55.5091120  60.1166300  43.1576260  54.1147070  59.5833850
  40.3629020  59.1814530  56.0665930  40.1369940  58.9651700  56.9712550
  39.5821550  59.6142990  55.7211900  47.5926780  59.1877900  54.6656580
  46.9935670  59.9113700  54.4820200  48.1406390  59.1254680  53.8833030
  42.8028230  60.0800110  66.7326200  42.7071830  59.1394840  66.5826600
  43.6460210  60.3015180  66.3374270  46.1991650  57.8241440  56.6959860
  46.5921220  58.1413640  55.8828550  46.5608500  56.9453320  56.8104380
  37.9338770  56.4913780  64.8859980  37.5402160  57.3388990  65.0932760
  37.2457170  55.8540150  65.0768620  44.5083820  56.5748750  67.9556720
  43.8182140  56.3820950  68.5902810  45.2516120  56.8583390  68.4881020
  35.2355820  54.4142240  58.9190060  34.9468870  54.9845100  59.6315040
  35.9801580  53.9346690  59.2821290  46.7846790  60.4147190  60.7910640
  46.0527910  60.9234000  61.1400740  46.3871130  59.5977170  60.4899420
  43.2224180  57.0901390  59.1963130  43.2260240  56.6491340  58.3467670
  44.1175300  57.4118720  59.3034950  39.0726560  56.9727880  58.1557340
  38.7326610  57.4503110  58.9124390  38.3103880  56.5193000  57.7958440
  43.2844330  58.0913470  52.1869890  43.4057150  58.0499950  53.1355710
  42.8992840  58.9537620  52.0316620  47.2472700  55.8680870  60.2033580
  47.2645440  56.3189520  61.0475430  46.9988280  54.9686510  60.4167020
  42.2965830  60.4014610  51.5853190  41.7282730  59.9532860  50.9589100
  43.0054830  60.7607390  51.0518340  50.6743450  53.2813050  66.0419960
  50.9989220  52.5502710  66.5677940  50.7099960  52.9626690  65.1400950
  37.3735010  64.3026630  65.4619920  36.9889800  63.6620300  66.0602880
  37.6847200  65.0062750  66.0314650  43.5232150  61.1503170  60.9428540
  43.8902280  60.6761740  61.6889880  43.3337210  62.0244740  61.2836880
  36.3872640  55.8946860  57.0722010  36.1019560  55.5302530  57.9100630
  36.3251500  55.1627320  56.4585150  41.3131520  60.1911810  63.2612750
  41.0088590  61.0703790  63.4863110  42.2677980  60.2511600  63.2970190
  39.8413310  64.3972800  53.8579600  39.0675570  63.8570420  53.6978320
  40.5707940  63.8779410  53.5197360  50.6001290  63.3938160  59.6505990
  51.3200410  63.8893450  59.2602100  50.3983110  62.7156050  59.0059860
  46.0611230  54.7876120  53.7935380  45.2475840  54.2889290  53.7180690
  45.8673180  55.6274370  53.3771730  45.9820090  63.4647220  65.5374990
  45.9157400  62.5442890  65.2832580  45.3525230  63.5622660  66.2519630
  48.7759620  59.1595770  52.0897540  49.6639240  59.4713000  51.9148880
  48.7464710  58.2868020  51.6978120  39.8850710  64.0653180  57.4958410
  40.4029380  63.2621440  57.4415300  39.4334730  64.0032320  58.3375240
  44.7720210  65.3319460  52.7685710  45.1135910  66.0761690  52.2729030
  43.9432920  65.6450580  53.1310540  37.3695250  61.0314550  64.4084110
  37.0110190  61.6968400  64.9957450  37.0749810  60.1998100  64.7796730
  40.5708370  61.4898790  67.2923660  40.2708510  61.6355970  66.3951480
  41.3419610  60.9304080  67.1997050  45.9136820  66.2867790  65.2878790
  45.9281360  65.3548750  65.0697700  45.2061920  66.3727550  65.9268560
  51.0473890  60.4707610  51.5577400  50.9637610  60.9021830  50.7073840
  51.7668080  60.9305960  51.9904220  52.1248030  62.9275130  64.6347370
  51.3996220  63.5203910  64.4376760  52.6523490  62.9198670  63.8360740
  52.0761140  67.3249870  54.2859530  51.4337300  66.6705490  54.5603250
  51.6891800  67.7304960  53.5100200  47.6547620  64.6535300  58.1331220
  48.0071440  64.0563430  57.4732590  46.7709950  64.3279530  58.3039470
  43.7410900  65.4132990  55.5401630  44.4282030  65.9602200  55.9209220
  42.9543320  65.9573720  55.5751240  35.8803300  61.0305810  51.0318710
  36.7498150  61.3130610  51.3154630  35.3893620  61.8441680  50.9167520
  43.0438110  62.4179020  55.1526990  43.5000890  63.2284270  55.3787180
  42.6926320  62.1002160  55.9845480  45.3470720  67.9285360  62.3819290
  45.9912940  68.1344740  63.0592710  45.7100160  67.1673760  61.9290140
  38.9449890  52.7616670  55.6249510  38.8164520  52.7534570  56.5734430
  38.1211910  53.0999760  55.2740520  46.6202800  65.9317710  61.0996740
  47.2625030  65.2310870  61.2128910  47.1452150  66.7116150  60.9193630
  50.4658520  66.2166330  50.8235880  50.2396100  65.4996770  51.4160520
  50.0754720  65.9678770  49.9857630  48.3940420  66.7312610  64.3032800
  48.7296660  67.3179300  64.9810720  47.4740760  66.6005320  64.5330590
  36.2474550  70.2433190  51.5980340  36.6072190  70.8422530  50.9437610
  36.1066890  70.7893080  52.3715370  35.9443820  54.5207790  65.0856210
  35.2302340  54.7204710  65.6908820  36.3638860  53.7447360  65.4571010
  50.0474770  64.1338270  52.4850040  49.7596470  64.5950960  53.2727920
  50.8426940  63.6736040  52.7534260  36.2316410  68.5088050  66.0722740
  36.3407530  67.5682790  65.9318130  35.5796970  68.7742800  65.4236470
  44.2229000  66.7803940  67.4720860  43.9025870  66.0613180  68.0166550
  43.5487360  67.4559010  67.5456920  42.2643170  67.6264390  52.4154010
  42.2553270  68.3594080  51.7998520  41.3441530  67.3795970  52.5080970
  37.8649810  62.8479280  53.1600770  37.2577760  63.5878180  53.1696070
  38.3399160  62.9378640  52.3338970  47.4382600  57.0130100  62.8357660
  47.8063420  56.1925310  63.1637230  46.5780800  57.0731990  63.2513310
  45.2502770  67.6892630  51.0779200  45.3514750  67.4856620  50.1481180
  44.3504510  67.4350910  51.2826980  42.7728660  58.2472990  55.0603100
  42.0644810  58.7159330  55.5016710  43.0573140  57.5895000  55.6948290
  44.3984590  59.6669690  63.0595630  44.8969840  60.1415510  63.7247480
  44.5407540  58.7433210  63.2665660  46.8044090  54.9723650  56.4998890
  46.6811870  54.9909780  55.5508400  47.7528650  55.0202590  56.6197290
  43.8920880  70.2078950  55.7726870  44.1462380  70.1700340  54.8506240
  42.9433360  70.0812280  55.7655120  40.9763680  56.5558070  52.4353810
  41.8254210  56.9928220  52.3694000  40.6094950  56.8678330  53.2625870
  51.6051450  55.8837650  63.9024020  51.1025050  56.6243050  64.2417830
  52.4208110  56.2721650  63.5860810  49.8973460  61.1270830  57.3485380
  48.9563600  61.1421060  57.5233070  50.2117530  60.3406790  57.7945680
  39.8755100  62.8090430  50.9089340  40.6418370  62.6971790  51.4714770
  39.9529790  62.1128400  50.2566110  38.5701860  60.2415500  51.5922230
  38.6505450  59.2943010  51.7039630  39.4621610  60.5722380  51.6982890
  51.8999040  68.2979680  59.0239640  52.0246460  69.1210850  59.4963450
  52.7664600  68.0870410  58.6763790  39.3716570  70.3910890  58.6956770
  40.1079050  69.8426350  58.9665340  39.7557490  71.2566900  58.5562760
  36.2562050  66.4584460  54.5698280  35.3301830  66.7005600  54.5603690
  36.7218480  67.2858720  54.4483030  38.3774850  69.5756960  67.8842350
  39.1787580  69.8969010  68.2977750  37.8626670  69.2152540  68.6062260
  42.4818880  69.5641200  50.5182340  43.2747490  69.8530030  50.0664130
  41.9623230  69.1333370  49.8394820  47.2139480  65.6836830  67.8317760
  46.6077640  65.7068430  67.0913510  46.9093590  64.9519870  68.3685010
  48.6439850  69.4117120  66.4427170  49.5961600  69.3275140  66.3927410
  48.4968070  70.0758830  67.1160960  51.5349050  68.7911330  51.9419080
  51.2490560  68.3776470  51.1273260  51.3368600  69.7199040  51.8219600
  36.0972660  62.0630420  66.8278400  36.6011680  61.4837700  67.3994630
  35.3580080  62.3470650  67.3654770  42.9996280  64.7844610  50.3824690
  42.8946920  64.1696960  51.1086070  42.8320500  64.2610500  49.5987700
  43.1510600  63.4701410  66.3613920  42.3856270  64.0386410  66.2768590
  43.3326560  63.1777620  65.4682150  46.2399010  63.8464640  50.9866680
  45.6909110  64.2933940  51.6309420  46.8618270  63.3413890  51.5104350
  50.2933950  65.2006740  66.9188940  51.0343420  65.5382500  66.4156400
  49.5306630  65.3698800  66.3658710  38.1295740  60.2060010  67.7228470
  38.1701080  59.9073880  68.6313700  38.9841240  60.6067620  67.5635990
  41.9074130  62.8055560  52.8831980  42.3290550  62.6395430  53.7263370
  42.0324970  61.9955790  52.3887120  40.0701550  58.7852110  65.6902960
  39.5398010  58.2943060  65.0626300  40.7389620  59.2136310  65.1560890
  44.4201770  61.8293170  50.1309080  44.9407430  61.1142190  49.7650230
  45.0670170  62.4679040  50.4309590  48.9679610  63.2521570  65.4544150
  49.3820630  63.4066650  66.3034570  48.0330610  63.3776790  65.6169930
  49.4401780  60.5917730  67.4583300  50.0222550  59.8370050  67.3703780
  49.6163550  61.1225170  66.6814780  40.5573850  55.7514480  65.7700250
  40.4630720  55.1335230  65.0451120  39.9771240  56.4780770  65.5430160
  43.3235290  54.3087720  62.8027640  42.8752590  54.3311980  61.9573190
  42.6900490  53.9106740  63.3997940  43.7294840  63.2042050  63.4240080
  44.1482950  64.0474780  63.2516320  42.8103470  63.3414090  63.1946860
  46.0658740  60.9358230  64.8077920  46.1854950  60.3399370  65.5472760
  46.9252740  60.9727920  64.3879220  48.4046640  61.4895420  63.3840430
  47.8781860  62.0138040  62.7805570  48.7477980  62.1222810  64.0150160
  41.5802260  69.5095060  64.5397810  41.0423350  70.2341120  64.2206510
  41.8336220  69.0325400  63.7495150  42.8327510  57.4779580  66.0653740
  43.4227200  57.1695430  66.7531560  42.0147750  57.0059330  66.2213640
  47.6520940  57.0945390  66.2986760  46.9636460  56.4326930  66.2336750
  48.3726960  56.6483660  66.7435220  44.4364470  70.7446270  64.7984460
  44.3623170  71.6481410  65.1056830  43.5343310  70.4258170  64.7706530
  44.9849800  69.9104780  52.4210820  45.8800590  70.2489750  52.4429580
  45.0167430  69.1884190  51.7935100  38.6245960  65.2831830  50.6497820
  39.0620830  65.8261500  51.3055400  39.1093690  64.4578780  50.6594160
  35.8391760  68.0720860  58.1018080  36.1694770  67.2041920  57.8696720
  36.2682760  68.2779380  58.9323040  40.4353680  66.4029870  55.7620050
  40.1349220  66.2794840  56.6623960  40.3291170  65.5438460  55.3535780
  36.3281970  68.9391450  60.8399710  35.8912960  69.1192250  61.6723860
  36.8959650  69.6966070  60.6981430  51.9644150  68.4408450  65.1277020
  51.3646140  68.5001010  64.3840940  52.0938050  67.5013430  65.2573870
  53.2045600  66.1826270  50.4646730  52.3738560  66.2502920  50.9353960
  53.3817430  67.0730390  50.1613590  52.6602060  62.9273750  52.9680930
  53.4220970  63.4970400  53.0740620  52.6756430  62.3600950  53.7389240
  36.1606400  61.4511680  57.1988590  35.5055240  61.1823320  56.5548290
  36.9984350  61.3416160  56.7490570  53.6662030  63.7823850  57.8122860
  54.0370860  62.9991170  57.4058830  54.3063960  64.4712950  57.6340160
  50.6495790  65.1660430  63.2253180  49.8355630  65.5957590  63.4878970
  51.0569990  65.7778840  62.6122230  52.7121230  63.2208120  50.1253450
  52.9870070  64.1287000  49.9972670  52.5231970  63.1570650  51.0615440
  52.6086570  61.1577110  55.1182880  52.2330170  60.3905040  54.6864170
  51.8789690  61.5399810  55.6057810  37.1982330  61.8364250  61.7391930
  37.5655370  61.7491650  62.6187950  36.6293150  61.0730800  61.6398790
  51.9986190  60.3048630  64.7522400  51.7672280  60.0761380  63.8520350
  52.2590740  61.2248180  64.7067290  36.7498330  58.7473340  65.6450350
  35.8554380  58.7140100  65.9844060  37.2895880  58.9460130  66.4101600
  50.4374260  55.5305060  67.5302100  51.3144440  55.5388460  67.9136100
  50.4495100  54.7935900  66.9194450  35.3744480  58.6610610  53.1413920
  34.4708560  58.9240810  52.9665580  35.8585100  58.9321780  52.3613880
  51.8837530  59.3834600  58.4190120  52.4075010  58.8897250  57.7880290
  52.4696950  59.5184960  59.1637690  52.0627250  59.4674470  61.9409670
  51.1129960  59.4338010  62.0554660  52.2440260  60.3774580  61.7059440
  37.9171690  57.7176150  51.0508300  38.6263390  57.2959370  50.5655580
  37.2011630  57.7851380  50.4191650  51.3737500  58.6407950  54.3582530
  51.8696620  58.4078820  55.1431410  51.1753570  57.8019790  53.9420170
  37.2538040  53.0221670  59.9933570  37.9014230  52.4719050  59.5528730
  37.6739880  53.2764820  60.8149380  52.8024660  57.2768900  56.8920210
  52.6923940  57.1224940  57.8302480  53.5632250  56.7489840  56.6495620
  51.1490380  53.2163030  63.3503210  51.7862600  53.8297170  63.7162400
  51.2965270  53.2523690  62.4052440  53.7653420  55.8787480  52.7583060
  52.9704920  55.8132600  53.2875970  53.9696700  56.8138120  52.7468410
  50.7071840  69.9179030  56.7521450  51.3030910  69.5963600  56.0755870
  50.9649990  69.4450850  57.5434720  37.0070040  53.1777340  62.7358890
  36.6584860  53.6341160  63.5017070  36.6757740  52.2834470  62.8181320
  38.6134410  66.3496940  66.9012080  38.5704040  65.9789850  67.7826540
  38.7445420  67.2874510  67.0413900  42.3140440  67.9056530  62.5021800
  42.0731800  68.1731090  61.6152320  43.2543080  68.0762260  62.5572660
  44.5194860  54.3689220  66.2578310  44.4583750  54.9611050  67.0073720
  45.4595240  54.2615180  66.1128570  47.1569420  54.0259280  65.8970600
  47.7709830  54.3438570  65.2351680  47.7018980  53.5407870  66.5166460
  53.5744600  69.9250910  63.3032440  53.0802880  70.3219780  62.5859570
  52.9657890  69.3000120  63.6969720  37.6790680  52.7053540  66.0109660
  38.2273670  52.5241590  65.2475770  37.7445990  51.9147650  66.5465970
  38.4522440  69.2959190  64.0209860  37.8582760  69.1643890  64.7599900
  38.4446280  68.4597330  63.5551960  47.8977460  52.5891420  62.2239890
  47.0237300  52.9226530  62.0212820  47.7888210  52.1164600  63.0491760
  48.8049440  54.7962290  63.6081610  48.4762800  53.9814050  63.2283340
  49.7531740  54.7532100  63.4847300  51.2584050  70.5674330  60.5819180
  50.7987020  71.3190140  60.2077200  50.6296510  69.8480800  60.5233980
  38.0834670  66.6617570  62.9717900  37.3568730  66.0422860  62.9043850
  38.1443820  67.0558180  62.1015980  41.6879770  68.8762570  59.7567310
  42.2044790  68.2649930  59.2315570  42.3377150  69.3791350  60.2478320
  44.4275270  69.7671060  60.5836290  44.7153080  69.5125360  59.7069300
  44.9398490  69.2148420  61.1741860  45.6452280  53.5061260  61.1632800
  44.8624070  53.9806760  61.4429560  45.3515210  52.6016090  61.0545980
  50.1973350  54.2084360  59.2081890  50.6381440  54.1529460  58.3603490
  49.9280940  55.1242370  59.2792070  52.0611920  53.8399600  57.2190710
  52.0000320  52.8960820  57.0721730  52.8403950  53.9479690  57.7644170
  36.3664670  69.9791960  56.1814660  36.1986710  69.3462640  56.8796550
  35.4999180  70.1851360  55.8308850  43.5306500  55.9248010  56.6748830
  42.7181010  55.5504900  56.3344710  44.0348140  55.1693090  56.9770020
  48.0331480  52.5890460  57.9131900  48.6360850  53.1610670  58.3880420
  47.2924470  53.1529900  57.6905800  37.9727370  68.6725190  53.6264800
  37.4474990  69.0533220  52.9226760  37.8971950  69.2975960  54.3474510
  41.5555680  54.0747930  55.2793880  40.9258420  53.3735240  55.4464010
  41.0160820  54.8352060  55.0627040  44.4947630  70.6887160  67.9504490
  45.4214940  70.4531430  67.9940450  44.4798060  71.5159160  67.4690520
  52.7292690  70.2312730  54.9478740  52.9044880  69.5450470  54.3039660
  52.0314260  70.7559780  54.5555410  41.6811240  53.3531910  67.7146370
  41.3995510  53.8565510  66.9507190  42.0630940  52.5553660  67.3488500
  40.5720340  70.6207570  52.5014050  41.3039160  70.3366850  51.9537940
  40.8314010  70.3820850  53.3913430  39.7335130  66.7372300  52.5060380
  39.1044010  67.2057400  53.0546210  39.8482960  65.8921520  52.9406570
  48.2826700  52.7685490  68.2926840  48.1692150  53.0880100  69.1878360
  49.0996440  53.1698000  67.9964120  51.0625190  69.9157020  67.7745530
  51.8550510  69.4206250  67.5671490  51.3558340  70.5947160  68.3821140
  47.1884850  60.7877960  38.6561580  47.1078900  59.8732570  38.3853290
  46.7749270  61.2845030  37.9501290  45.3202890  62.5656980  40.5370850
  44.5444990  62.0857420  40.8269420  45.9715820  61.8862630  40.3627010
  49.3410320  66.9717170  39.3169980  48.8791850  66.2004410  39.6457150
  50.1535870  66.9983240  39.8222430  45.5673630  69.2575180  38.9373970
  44.9485070  69.7132680  38.3668410  46.4225410  69.4126640  38.5363670
  44.7611880  65.2414170  40.5441010  44.6920160  64.3004110  40.3830140
  45.5231740  65.3315580  41.1163580  53.8640720  57.5601740  44.2681910
  53.1592890  57.9483450  43.7497020  54.1298640  58.2552030  44.8702840
  46.4336980  64.1414420  36.3305880  45.8154250  64.6063870  35.7668600
  46.9460230  64.8341900  36.7475390  51.4265430  67.1010500  42.7393300
  50.7428950  67.7709610  42.7309970  51.9659720  67.2991150  41.9738160
  48.9624170  68.9454630  41.4538480  48.9751330  68.5416920  40.5860740
  48.4099390  69.7201920  41.3499910  50.2569590  65.6670850  36.5428650
  50.1465920  64.7245180  36.6678070  50.2537840  66.0286490  37.4291410
  48.3609610  63.8484470  42.7821090  48.7778400  63.6344580  41.9474550
  49.0849430  64.1057260  43.3529710  52.3071710  62.2471690  42.8737330
  51.4790340  62.3164780  42.3987460  52.9022190  62.8326000  42.4053160
  49.8287160  62.8556470  36.4026390  49.2099580  62.5176020  35.7552690
  49.8111610  62.2116230  37.1105580  49.9613820  69.0800340  44.5073180
  49.4844380  69.8872530  44.3145790  49.2775610  68.4278670  44.6599390
  40.9646640  65.2450160  47.4957880  40.0675170  65.4690130  47.7431280
  40.9899510  65.3685100  46.5469280  48.0051860  62.0943280  33.4099140
  48.4445140  61.2565710  33.2636960  48.7180280  62.7272680  33.4963280
  46.1147240  67.0339350  37.3780380  46.5543150  67.7763680  36.9635770
  46.0534130  67.2765920  38.3019340  41.5898210  68.0585180  48.2800400
  41.5613640  68.4628130  47.4128830  41.4263180  67.1295540  48.1172000
  53.5413030  68.8412280  49.5764570  54.0172750  69.3195170  50.2553650
  54.1620190  68.7729770  48.8510070  52.9446280  66.0325130  46.7364580
  53.0709340  65.7937010  45.8181760  52.9867660  65.2009670  47.2086660
  46.8063020  69.7353130  45.3059390  47.3207690  69.6461140  46.1081820
  45.9632100  70.0812830  45.5987300  48.7817420  70.0208470  34.7343390
  48.6218560  69.7311410  35.6325220  48.6164130  69.2448600  34.1988620
  41.2605800  69.8007000  36.5115010  41.0848280  68.8842540  36.2982810
  40.4061540  70.1594290  36.7512810  48.4843550  67.5296030  33.2941390
  47.7908710  67.5273320  32.6343670  49.2266410  67.1055350  32.8635560
  48.0493480  69.1558740  37.3689880  48.5050430  68.3748120  37.6828500
  48.3886000  69.8665560  37.9131060  52.7970290  58.0857590  47.7014320
  52.1814560  58.5937260  47.1729780  52.4766710  57.1855920  47.6440260
  46.9538830  59.6460180  48.3971960  47.2792240  58.8123930  48.0574190
  47.7419160  60.1688700  48.5450290  44.5083820  56.5748750  49.1813230
  43.8182140  56.3820950  49.8159320  45.2516120  56.8583390  49.7137530
  50.6001290  63.3938160  40.8762500  51.3200410  63.8893450  40.4858610
  50.3983110  62.7156050  40.2316370  45.9820090  63.4647220  46.7631500
  45.9157400  62.5442890  46.5089090  45.3525230  63.5622660  47.4776140
  44.7720210  65.3319460  33.9942220  45.1135910  66.0761690  33.4985540
  43.9432920  65.6450580  34.3567050  45.9136820  66.2867790  46.5135300
  45.9281360  65.3548750  46.2954210  45.2061920  66.3727550  47.1525070
  51.0473890  60.4707610  32.7833910  50.9637610  60.9021830  31.9330350
  51.7668080  60.9305960  33.2160730  52.1248030  62.9275130  45.8603880
  51.3996220  63.5203910  45.6633270  52.6523490  62.9198670  45.0617250
  52.0761140  67.3249870  35.5116040  51.4337300  66.6705490  35.7859760
  51.6891800  67.7304960  34.7356710  47.6547620  64.6535300  39.3587730
  48.0071440  64.0563430  38.6989100  46.7709950  64.3279530  39.5295980
  45.3470720  67.9285360  43.6075800  45.9912940  68.1344740  44.2849220
  45.7100160  67.1673760  43.1546650  46.6202800  65.9317710  42.3253250
  47.2625030  65.2310870  42.4385420  47.1452150  66.7116150  42.1450140
  50.4658520  66.2166330  32.0492390  50.2396100  65.4996770  32.6417030
  50.0754720  65.9678770  31.2114140  48.3940420  66.7312610  45.5289310
  48.7296660  67.3179300  46.2067230  47.4740760  66.6005320  45.7587100
  36.2474550  70.2433190  32.8236850  36.6072190  70.8422530  32.1694120
  36.1066890  70.7893080  33.5971880  50.0474770  64.1338270  33.7106550
  49.7596470  64.5950960  34.4984430  50.8426940  63.6736040  33.9790770
  44.2229000  66.7803940  48.6977370  43.9025870  66.0613180  49.2423060
  43.5487360  67.4559010  48.7713430  42.2643170  67.6264390  33.6410520
  42.2553270  68.3594080  33.0255030  41.3441530  67.3795970  33.7337480
  45.2502770  67.6892630  32.3035710  45.3514750  67.4856620  31.3737690
  44.3504510  67.4350910  32.5083490  43.8920880  70.2078950  36.9983380
  44.1462380  70.1700340  36.0762750  42.9433360  70.0812280  36.9911630
  49.8973460  61.1270830  38.5741890  48.9563600  61.1421060  38.7489580
  50.2117530  60.3406790  39.0202190  51.8999040  68.2979680  40.2496150
  52.0246460  69.1210850  40.7219960  52.7664600  68.0870410  39.9020300
  38.3774850  69.5756960  49.1098860  39.1787580  69.8969010  49.5234260
  37.8626670  69.2152540  49.8318770  42.4818880  69.5641200  31.7438850
  43.2747490  69.8530030  31.2920640  41.9623230  69.1333370  31.0651330
  47.2139480  65.6836830  49.0574270  46.6077640  65.7068430  48.3170020
  46.9093590  64.9519870  49.5941520  48.6439850  69.4117120  47.6683680
  49.5961600  69.3275140  47.6183920  48.4968070  70.0758830  48.3417470
  51.5349050  68.7911330  33.1675590  51.2490560  68.3776470  32.3529770
  51.3368600  69.7199040  33.0476110  42.9996280  64.7844610  31.6081200
  42.8946920  64.1696960  32.3342580  42.8320500  64.2610500  30.8244210
  43.1510600  63.4701410  47.5870430  42.3856270  64.0386410  47.5025100
  43.3326560  63.1777620  46.6938660  46.2399010  63.8464640  32.2123190
  45.6909110  64.2933940  32.8565930  46.8618270  63.3413890  32.7360860
  50.2933950  65.2006740  48.1445450  51.0343420  65.5382500  47.6412910
  49.5306630  65.3698800  47.5915220  38.1295740  60.2060010  48.9484980
  38.1701080  59.9073880  49.8570210  38.9841240  60.6067620  48.7892500
  44.4201770  61.8293170  31.3565590  44.9407430  61.1142190  30.9906740
  45.0670170  62.4679040  31.6566100  48.9679610  63.2521570  46.6800660
  49.3820630  63.4066650  47.5291080  48.0330610  63.3776790  46.8426440
  49.4401780  60.5917730  48.6839810  50.0222550  59.8370050  48.5960290
  49.6163550  61.1225170  47.9071290  46.0658740  60.9358230  46.0334430
  46.1854950  60.3399370  46.7729270  46.9252740  60.9727920  45.6135730
  48.4046640  61.4895420  44.6096940  47.8781860  62.0138040  44.0062080
  48.7477980  62.1222810  45.2406670  41.5802260  69.5095060  45.7654320
  41.0423350  70.2341120  45.4463020  41.8336220  69.0325400  44.9751660
  44.4364470  70.7446270  46.0240970  44.3623170  71.6481410  46.3313340
  43.5343310  70.4258170  45.9963040  44.9849800  69.9104780  33.6467330
  45.8800590  70.2489750  33.6686090  45.0167430  69.1884190  33.0191610
  51.9644150  68.4408450  46.3533530  51.3646140  68.5001010  45.6097450
  52.0938050  67.5013430  46.4830380  53.2045600  66.1826270  31.6903240
  52.3738560  66.2502920  32.1610470  53.3817430  67.0730390  31.3870100
  52.6602060  62.9273750  34.1937440  53.4220970  63.4970400  34.2997130
  52.6756430  62.3600950  34.9645750  53.6662030  63.7823850  39.0379370
  54.0370860  62.9991170  38.6315340  54.3063960  64.4712950  38.8596670
  50.6495790  65.1660430  44.4509690  49.8355630  65.5957590  44.7135480
  51.0569990  65.7778840  43.8378740  52.7121230  63.2208120  31.3509960
  52.9870070  64.1287000  31.2229180  52.5231970  63.1570650  32.2871950
  52.6086570  61.1577110  36.3439390  52.2330170  60.3905040  35.9120680
  51.8789690  61.5399810  36.8314320  51.9986190  60.3048630  45.9778910
  51.7672280  60.0761380  45.0776860  52.2590740  61.2248180  45.9323800
  51.8837530  59.3834600  39.6446630  52.4075010  58.8897250  39.0136800
  52.4696950  59.5184960  40.3894200  52.0627250  59.4674470  43.1666180
  51.1129960  59.4338010  43.2811170  52.2440260  60.3774580  42.9315950
  51.3737500  58.6407950  35.5839040  51.8696620  58.4078820  36.3687920
  51.1753570  57.8019790  35.1676680  52.8024660  57.2768900  38.1176720
  52.6923940  57.1224940  39.0558990  53.5632250  56.7489840  37.8752130
  53.6914930  55.1076820  31.3582860  54.6164240  54.9758000  31.1501150
  53.6690720  55.1869640  32.3119310  53.7653420  55.8787480  33.9839570
  52.9704920  55.8132600  34.5132480  53.9696700  56.8138120  33.9724920
  50.7071840  69.9179030  37.9777960  51.3030910  69.5963600  37.3012380
  50.9649990  69.4450850  38.7691230  38.6134410  66.3496940  48.1268590
  38.5704040  65.9789850  49.0083050  38.7445420  67.2874510  48.2670410
  53.5744600  69.9250910  44.5288950  53.0802880  70.3219780  43.8116080
  52.9657890  69.3000120  44.9226230  38.4522440  69.2959190  45.2466370
  37.8582760  69.1643890  45.9856410  38.4446280  68.4597330  44.7808470
  51.2584050  70.5674330  41.8075690  50.7987020  71.3190140  41.4333710
  50.6296510  69.8480800  41.7490490  44.4275270  69.7671060  41.8092800
  44.7153080  69.5125360  40.9325810  44.9398490  69.2148420  42.3998370
  44.4947630  70.6887160  49.1761000  45.4214940  70.4531430  49.2196960
  44.4798060  71.5159160  48.6947030  52.7292690  70.2312730  36.1735250
  52.9044880  69.5450470  35.5296170  52.0314260  70.7559780  35.7811920
  40.5720340  70.6207570  33.7270560  41.3039160  70.3366850  33.1794450
  40.8314010  70.3820850  34.6169940  51.0625190  69.9157020  49.0002040
  51.8550510  69.4206250  48.7928000  51.3558340  70.5947160  49.6077650
  47.1884850  60.7877960  19.8818090  47.1078900  59.8732570  19.6109800
  46.7749270  61.2845030  19.1757800  45.3202890  62.5656980  21.7627360
  44.5444990  62.0857420  22.0525930  45.9715820  61.8862630  21.5883520
  49.3410320  66.9717170  20.5426490  48.8791850  66.2004410  20.8713660
  50.1535870  66.9983240  21.0478940  39.3169980  66.9116880  22.8361140
  39.6198020  66.0214620  22.6571360  40.0613570  67.4687100  22.6083390
  45.5673630  69.2575180  20.1630480  44.9485070  69.7132680  19.5924920
  46.4225410  69.4126640  19.7620180  44.7611880  65.2414170  21.7697520
  44.6920160  64.3004110  21.6086650  45.5231740  65.3315580  22.3420090
  45.7917050  58.0484550  21.9966450  46.1681870  57.1756430  21.8840120
  45.6936560  58.3843250  21.1056890  49.5741170  55.5434990  18.9294790
  50.3950790  55.0531560  18.9720270  49.6075250  56.1332650  19.6826630
  53.8640720  57.5601740  25.4938420  53.1592890  57.9483450  24.9753530
  54.1298640  58.2552030  26.0959350  46.4336980  64.1414420  17.5562390
  45.8154250  64.6063870  16.9925110  46.9460230  64.8341900  17.9731900
  49.8102650  57.4835370  21.7022330  49.1058220  57.7720260  22.2825440
  50.1714810  58.2935480  21.3421890  35.8020180  64.8270950  14.9302020
  35.4248160  65.3158050  14.1986920  36.0593250  65.4996230  15.5608550
  51.4265430  67.1010500  23.9649810  50.7428950  67.7709610  23.9566480
  51.9659720  67.2991150  23.1994670  52.8789570  56.9290160  22.0931540
  51.9314480  56.9629140  22.2246970  53.2039560  57.7429110  22.4780900
  48.9624170  68.9454630  22.6794990  48.9751330  68.5416920  21.8117250
  48.4099390  69.7201920  22.5756420  50.2569590  65.6670850  17.7685160
  50.1465920  64.7245180  17.8934580  50.2537840  66.0286490  18.6547920
  48.3609610  63.8484470  24.0077600  48.7778400  63.6344580  23.1731060
  49.0849430  64.1057260  24.5786220  45.7989870  61.2936170  17.1247650
  44.8719150  61.2273550  17.3536120  45.9514690  62.2316300  17.0102890
  45.7858950  57.5653170  14.1214810  44.8462620  57.7267130  14.2067270
  46.1042210  58.2838850  13.5750800  52.3071710  62.2471690  24.0993840
  51.4790340  62.3164780  23.6243970  52.9022190  62.8326000  23.6309670
  49.8287160  62.8556470  17.6282900  49.2099580  62.5176020  16.9809200
  49.8111610  62.2116230  18.3362090  49.2713720  59.0341010  25.0448710
  48.8584900  59.8594720  25.2988700  48.5389670  58.4486050  24.8525070
  41.4046510  61.8200910  19.9067380  41.0003510  61.1078160  19.4113280
  41.4909630  61.4754150  20.7955420  41.8728210  65.5068470  22.0706590
  41.5756500  64.9013940  21.3914370  42.8228030  65.5445780  21.9595950
  49.9613820  69.0800340  25.7329690  49.4844380  69.8872530  25.5402300
  49.2775610  68.4278670  25.8855900  40.9646640  65.2450160  28.7214390
  40.0675170  65.4690130  28.9687790  40.9899510  65.3685100  27.7725790
  48.0051860  62.0943280  14.6355650  48.4445140  61.2565710  14.4893470
  48.7180280  62.7272680  14.7219790  46.1147240  67.0339350  18.6036890
  46.5543150  67.7763680  18.1892280  46.0534130  67.2765920  19.5275850
  41.5898210  68.0585180  29.5056910  41.5613640  68.4628130  28.6385340
  41.4263180  67.1295540  29.3428510  51.5869000  53.3486090  12.9496690
  51.2741660  53.4412920  13.8495760  52.3481470  53.9267120  12.8994120
  38.1051140  60.7145890  17.4074030  37.9848740  61.4407980  16.7955300
  37.7952030  59.9448800  16.9301940  53.5413030  68.8412280  30.8021080
  54.0172750  69.3195170  31.4810160  54.1620190  68.7729770  30.0766580
  36.9884140  65.5861220  19.6248850  36.5812220  65.7275810  18.7702450
  37.8797150  65.3021380  19.4220060  52.9446280  66.0325130  27.9621090
  53.0709340  65.7937010  27.0438270  52.9867660  65.2009670  28.4343170
  46.8063020  69.7353130  26.5315900  47.3207690  69.6461140  27.3338330
  45.9632100  70.0812830  26.8243810  48.7817420  70.0208470  15.9599900
  48.6218560  69.7311410  16.8581730  48.6164130  69.2448600  15.4245130
  41.2605800  69.8007000  17.7371520  41.0848280  68.8842540  17.5239320
  40.4061540  70.1594290  17.9769320  48.4843550  67.5296030  14.5197900
  47.7908710  67.5273320  13.8600180  49.2266410  67.1055350  14.0892070
  48.0493480  69.1558740  18.5946390  48.5050430  68.3748120  18.9085010
  48.3886000  69.8665560  19.1387570  52.7970290  58.0857590  28.9270830
  52.1814560  58.5937260  28.3986290  52.4766710  57.1855920  28.8696770
  49.8589120  58.1458430  27.5229680  49.0082710  57.8464180  27.8438750
  49.6990910  58.3900440  26.6113500  46.9538830  59.6460180  29.6228470
  47.2792240  58.8123930  29.2830700  47.7419160  60.1688700  29.7706800
  43.6873620  53.6791660  15.6703530  43.0627800  53.6751530  16.3956840
  43.6003740  52.8122620  15.2739500  40.3629020  59.1814530  18.5178950
  40.1369940  58.9651700  19.4225570  39.5821550  59.6142990  18.1724920
  47.5926780  59.1877900  17.1169600  46.9935670  59.9113700  16.9333220
  48.1406390  59.1254680  16.3346050  46.1991650  57.8241440  19.1472880
  46.5921220  58.1413640  18.3341570  46.5608500  56.9453320  19.2617400
  46.7846790  60.4147190  23.2423660  46.0527910  60.9234000  23.5913760
  46.3871130  59.5977170  22.9412440  43.2224180  57.0901390  21.6476150
  43.2260240  56.6491340  20.7980690  44.1175300  57.4118720  21.7547970
  43.2844330  58.0913470  14.6382910  43.4057150  58.0499950  15.5868730
  42.8992840  58.9537620  14.4829640  47.2472700  55.8680870  22.6546600
  47.2645440  56.3189520  23.4988450  46.9988280  54.9686510  22.8680040
  42.2965830  60.4014610  14.0366210  41.7282730  59.9532860  13.4102120
  43.0054830  60.7607390  13.5031360  50.6743450  53.2813050  28.4932980
  50.9989220  52.5502710  29.0190960  50.7099960  52.9626690  27.5913970
  39.8413310  64.3972800  16.3092620  39.0675570  63.8570420  16.1491340
  40.5707940  63.8779410  15.9710380  50.6001290  63.3938160  22.1019010
  51.3200410  63.8893450  21.7115120  50.3983110  62.7156050  21.4572880
  46.0611230  54.7876120  16.2448400  45.2475840  54.2889290  16.1693710
  45.8673180  55.6274370  15.8284750  45.9820090  63.4647220  27.9888010
  45.9157400  62.5442890  27.7345600  45.3525230  63.5622660  28.7032650
  48.7759620  59.1595770  14.5410560  49.6639240  59.4713000  14.3661900
  48.7464710  58.2868020  14.1491140  39.8850710  64.0653180  19.9471430
  40.4029380  63.2621440  19.8928320  39.4334730  64.0032320  20.7888260
  44.7720210  65.3319460  15.2198730  45.1135910  66.0761690  14.7242050
  43.9432920  65.6450580  15.5823560  45.9136820  66.2867790  27.7391810
  45.9281360  65.3548750  27.5210720  45.2061920  66.3727550  28.3781580
  51.0473890  60.4707610  14.0090420  50.9637610  60.9021830  13.1586860
  51.7668080  60.9305960  14.4417240  52.1248030  62.9275130  27.0860390
  51.3996220  63.5203910  26.8889780  52.6523490  62.9198670  26.2873760
  52.0761140  67.3249870  16.7372550  51.4337300  66.6705490  17.0116270
  51.6891800  67.7304960  15.9613220  47.6547620  64.6535300  20.5844240
  48.0071440  64.0563430  19.9245610  46.7709950  64.3279530  20.7552490
  43.7410900  65.4132990  17.9914650  44.4282030  65.9602200  18.3722240
  42.9543320  65.9573720  18.0264260  35.8803300  61.0305810  13.4831730
  36.7498150  61.3130610  13.7667650  35.3893620  61.8441680  13.3680540
  43.0438110  62.4179020  17.6040010  43.5000890  63.2284270  17.8300200
  42.6926320  62.1002160  18.4358500  45.3470720  67.9285360  24.8332310
  45.9912940  68.1344740  25.5105730  45.7100160  67.1673760  24.3803160
  46.6202800  65.9317710  23.5509760  47.2625030  65.2310870  23.6641930
  47.1452150  66.7116150  23.3706650  50.4658520  66.2166330  13.2748900
  50.2396100  65.4996770  13.8673540  50.0754720  65.9678770  12.4370650
  48.3940420  66.7312610  26.7545820  48.7296660  67.3179300  27.4323740
  47.4740760  66.6005320  26.9843610  36.2474550  70.2433190  14.0493360
  36.6072190  70.8422530  13.3950630  36.1066890  70.7893080  14.8228390
  50.0474770  64.1338270  14.9363060  49.7596470  64.5950960  15.7240940
  50.8426940  63.6736040  15.2047280  36.2316410  68.5088050  28.5235760
  36.3407530  67.5682790  28.3831150  35.5796970  68.7742800  27.8749490
  44.2229000  66.7803940  29.9233880  43.9025870  66.0613180  30.4679570
  43.5487360  67.4559010  29.9969940  42.2643170  67.6264390  14.8667030
  42.2553270  68.3594080  14.2511540  41.3441530  67.3795970  14.9593990
  37.8649810  62.8479280  15.6113790  37.2577760  63.5878180  15.6209090
  38.3399160  62.9378640  14.7851990  47.4382600  57.0130100  25.2870680
  47.8063420  56.1925310  25.6150250  46.5780800  57.0731990  25.7026330
  50.8044630  55.9687040  16.0958240  50.1757790  56.0732710  15.3816470
  50.3096550  56.1883820  16.8852120  45.2502770  67.6892630  13.5292220
  45.3514750  67.4856620  12.5994200  44.3504510  67.4350910  13.7340000
  42.7728660  58.2472990  17.5116120  42.0644810  58.7159330  17.9529730
  43.0573140  57.5895000  18.1461310  44.3984590  59.6669690  25.5108650
  44.8969840  60.1415510  26.1760500  44.5407540  58.7433210  25.7178680
  46.8044090  54.9723650  18.9511910  46.6811870  54.9909780  18.0021420
  47.7528650  55.0202590  19.0710310  43.8920880  70.2078950  18.2239890
  44.1462380  70.1700340  17.3019260  42.9433360  70.0812280  18.2168140
  40.9763680  56.5558070  14.8866830  41.8254210  56.9928220  14.8207020
  40.6094950  56.8678330  15.7138890  51.6051450  55.8837650  26.3537040
  51.1025050  56.6243050  26.6930850  52.4208110  56.2721650  26.0373830
  49.8973460  61.1270830  19.7998400  48.9563600  61.1421060  19.9746090
  50.2117530  60.3406790  20.2458700  39.8755100  62.8090430  13.3602360
  40.6418370  62.6971790  13.9227790  39.9529790  62.1128400  12.7079130
  38.5701860  60.2415500  14.0435250  38.6505450  59.2943010  14.1552650
  39.4621610  60.5722380  14.1495910  51.8999040  68.2979680  21.4752660
  52.0246460  69.1210850  21.9476470  52.7664600  68.0870410  21.1276810
  39.3716570  70.3910890  21.1469790  40.1079050  69.8426350  21.4178360
  39.7557490  71.2566900  21.0075780  36.2562050  66.4584460  17.0211300
  35.3301830  66.7005600  17.0116710  36.7218480  67.2858720  16.8996050
  38.3774850  69.5756960  30.3355370  39.1787580  69.8969010  30.7490770
  37.8626670  69.2152540  31.0575280  42.4818880  69.5641200  12.9695360
  43.2747490  69.8530030  12.5177150  41.9623230  69.1333370  12.2907840
  47.2139480  65.6836830  30.2830780  46.6077640  65.7068430  29.5426530
  46.9093590  64.9519870  30.8198030  48.6439850  69.4117120  28.8940190
  49.5961600  69.3275140  28.8440430  48.4968070  70.0758830  29.5673980
  51.5349050  68.7911330  14.3932100  51.2490560  68.3776470  13.5786280
  51.3368600  69.7199040  14.2732620  42.9996280  64.7844610  12.8337710
  42.8946920  64.1696960  13.5599090  42.8320500  64.2610500  12.0500720
  43.1510600  63.4701410  28.8126940  42.3856270  64.0386410  28.7281610
  43.3326560  63.1777620  27.9195170  46.2399010  63.8464640  13.4379700
  45.6909110  64.2933940  14.0822440  46.8618270  63.3413890  13.9617370
  50.2933950  65.2006740  29.3701960  51.0343420  65.5382500  28.8669420
  49.5306630  65.3698800  28.8171730  41.9074130  62.8055560  15.3345000
  42.3290550  62.6395430  16.1776390  42.0324970  61.9955790  14.8400140
  44.4201770  61.8293170  12.5822100  44.9407430  61.1142190  12.2163250
  45.0670170  62.4679040  12.8822610  48.9679610  63.2521570  27.9057170
  49.3820630  63.4066650  28.7547590  48.0330610  63.3776790  28.0682950
  49.4401780  60.5917730  29.9096320  50.0222550  59.8370050  29.8216800
  49.6163550  61.1225170  29.1327800  46.0658740  60.9358230  27.2590940
  46.1854950  60.3399370  27.9985780  46.9252740  60.9727920  26.8392240
  48.4046640  61.4895420  25.8353450  47.8781860  62.0138040  25.2318590
  48.7477980  62.1222810  26.4663180  40.8033030  58.8788790  12.2803160
  40.6022090  58.0156150  12.6416500  40.6325080  58.7922150  11.3424760
  41.5802260  69.5095060  26.9910830  41.0423350  70.2341120  26.6719530
  41.8336220  69.0325400  26.2008170  47.6520940  57.0945390  28.7499780
  46.9636460  56.4326930  28.6849770  48.3726960  56.6483660  29.1948240
  48.2821340  53.6897020  14.8090040  48.5623630  52.8464920  15.1649460
  47.5087070  53.9220130  15.3228790  39.6015830  55.9789410  12.2681040
  39.9041730  55.9856840  11.3600190  40.3410420  55.6287270  12.7648700
  44.4364470  70.7446270  27.2497480  44.3623170  71.6481410  27.5569850
  43.5343310  70.4258170  27.2219550  42.8200760  54.9224030  13.2537240
  42.4722760  54.2448020  12.6739690  43.0213530  54.4613540  14.0680630
  44.9849800  69.9104780  14.8723840  45.8800590  70.2489750  14.8942600
  45.0167430  69.1884190  14.2448120  38.6245960  65.2831830  13.1010840
  39.0620830  65.8261500  13.7568420  39.1093690  64.4578780  13.1107180
  35.8391760  68.0720860  20.5531100  36.1694770  67.2041920  20.3209740
  36.2682760  68.2779380  21.3836060  40.4353680  66.4029870  18.2133070
  40.1349220  66.2794840  19.1136980  40.3291170  65.5438460  17.8048800
  36.3281970  68.9391450  23.2912730  35.8912960  69.1192250  24.1236880
  36.8959650  69.6966070  23.1494450  51.9644150  68.4408450  27.5790040
  51.3646140  68.5001010  26.8353960  52.0938050  67.5013430  27.7086890
  53.2045600  66.1826270  12.9159750  52.3738560  66.2502920  13.3866980
  53.3817430  67.0730390  12.6126610  52.6602060  62.9273750  15.4193950
  53.4220970  63.4970400  15.5253640  52.6756430  62.3600950  16.1902260
  53.6662030  63.7823850  20.2635880  54.0370860  62.9991170  19.8571850
  54.3063960  64.4712950  20.0853180  50.6495790  65.1660430  25.6766200
  49.8355630  65.5957590  25.9391990  51.0569990  65.7778840  25.0635250
  52.7121230  63.2208120  12.5766470  52.9870070  64.1287000  12.4485690
  52.5231970  63.1570650  13.5128460  49.1096840  56.2452970  13.8720100
  49.5281720  56.0583950  13.0316760  48.8032900  55.3932020  14.1823030
  52.6086570  61.1577110  17.5695900  52.2330170  60.3905040  17.1377190
  51.8789690  61.5399810  18.0570830  51.9986190  60.3048630  27.2035420
  51.7672280  60.0761380  26.3033370  52.2590740  61.2248180  27.1580310
  50.4374260  55.5305060  29.9815120  51.3144440  55.5388460  30.3649120
  50.4495100  54.7935900  29.3707470  51.8837530  59.3834600  20.8703140
  52.4075010  58.8897250  20.2393310  52.4696950  59.5184960  21.6150710
  52.0627250  59.4674470  24.3922690  51.1129960  59.4338010  24.5067680
  52.2440260  60.3774580  24.1572460  37.9171690  57.7176150  13.5021320
  38.6263390  57.2959370  13.0168600  37.2011630  57.7851380  12.8704670
  37.5645850  53.7715480  12.5423970  38.2873980  54.3124420  12.8605190
  37.8370370  53.4978900  11.6665510  51.3737500  58.6407950  16.8095550
  51.8696620  58.4078820  17.5944430  51.1753570  57.8019790  16.3933190
  52.8024660  57.2768900  19.3433230  52.6923940  57.1224940  20.2815500
  53.5632250  56.7489840  19.1008640  51.1490380  53.2163030  25.8016230
  51.7862600  53.8297170  26.1675420  51.2965270  53.2523690  24.8565460
  53.6914930  55.1076820  12.5839370  54.6164240  54.9758000  12.3757660
  53.6690720  55.1869640  13.5375820  53.7653420  55.8787480  15.2096080
  52.9704920  55.8132600  15.7388990  53.9696700  56.8138120  15.1981430
  50.7071840  69.9179030  19.2034470  51.3030910  69.5963600  18.5268890
  50.9649990  69.4450850  19.9947740  42.3140440  67.9056530  24.9534820
  42.0731800  68.1731090  24.0665340  43.2543080  68.0762260  25.0085680
  53.5744600  69.9250910  25.7545460  53.0802880  70.3219780  25.0372590
  52.9657890  69.3000120  26.1482740  38.4522440  69.2959190  26.4722880
  37.8582760  69.1643890  27.2112920  38.4446280  68.4597330  26.0064980
  48.8049440  54.7962290  26.0594630  48.4762800  53.9814050  25.6796360
  49.7531740  54.7532100  25.9360320  51.2584050  70.5674330  23.0332200
  50.7987020  71.3190140  22.6590220  50.6296510  69.8480800  22.9747000
  38.0834670  66.6617570  25.4230920  37.3568730  66.0422860  25.3556870
  38.1443820  67.0558180  24.5529000  41.6879770  68.8762570  22.2080330
  42.2044790  68.2649930  21.6828590  42.3377150  69.3791350  22.6991340
  44.4275270  69.7671060  23.0349310  44.7153080  69.5125360  22.1582320
  44.9398490  69.2148420  23.6254880  50.1973350  54.2084360  21.6594910
  50.6381440  54.1529460  20.8116510  49.9280940  55.1242370  21.7305090
  52.0611920  53.8399600  19.6703730  52.0000320  52.8960820  19.5234750
  52.8403950  53.9479690  20.2157190  36.3664670  69.9791960  18.6327680
  36.1986710  69.3462640  19.3309570  35.4999180  70.1851360  18.2821870
  36.9892690  53.8108740  16.1359540  37.7472050  53.9237620  15.5623570
  36.5269860  54.6477940  16.0902970  43.5306500  55.9248010  19.1261850
  42.7181010  55.5504900  18.7857730  44.0348140  55.1693090  19.4283040
  48.0331480  52.5890460  20.3644920  48.6360850  53.1610670  20.8393440
  47.2924470  53.1529900  20.1418820  51.1766080  52.9912020  15.6385200
  51.3716710  53.8895470  15.9052630  50.3895950  52.7599100  16.1318150
  37.9727370  68.6725190  16.0777820  37.4474990  69.0533220  15.3739780
  37.8971950  69.2975960  16.7987530  39.3617840  54.3372790  14.6761510
  39.8910600  53.5502590  14.5469460  39.9946160  55.0163980  14.9097040
  44.4947630  70.6887160  30.4017510  45.4214940  70.4531430  30.4453470
  44.4798060  71.5159160  29.9203540  52.7292690  70.2312730  17.3991760
  52.9044880  69.5450470  16.7552680  52.0314260  70.7559780  17.0068430
  40.5720340  70.6207570  14.9527070  41.3039160  70.3366850  14.4050960
  40.8314010  70.3820850  15.8426450  39.7335130  66.7372300  14.9573400
  39.1044010  67.2057400  15.5059230  39.8482960  65.8921520  15.3919590
  51.0625190  69.9157020  30.2258550  51.8550510  69.4206250  30.0184510
  51.3558340  70.5947160  30.8334160  45.3202890  62.5656980   2.9883870
  44.5444990  62.0857420   3.2782440  45.9715820  61.8862630   2.8140030
  39.3368720  62.8776790   3.8659630  38.5053600  62.6225500   4.2656140
  39.9449700  62.9487560   4.6017550  49.3410320  66.9717170   1.7683000
  48.8791850  66.2004410   2.0970170  50.1535870  66.9983240   2.2735450
  39.3169980  66.9116880   4.0617650  39.6198020  66.0214620   3.8827870
  40.0613570  67.4687100   3.8339900  35.7093680  60.4384330   3.5341720
  36.2809790  59.6706530   3.5345360  35.7095220  60.7373090   2.6248330
  44.7611880  65.2414170   2.9954030  44.6920160  64.3004110   2.8343160
  45.5231740  65.3315580   3.5676600  36.9518550  55.8468690   5.3210650
  36.7721390  54.9494440   5.6013410  36.5498630  56.3940560   5.9957600
  45.7917050  58.0484550   3.2222960  46.1681870  57.1756430   3.1096630
  45.6936560  58.3843250   2.3313400  37.5705220  58.3429190   3.9292990
  38.2515330  58.6067560   4.5480390  37.2553270  57.5030060   4.2631000
  41.7629790  59.3896550   3.0165580  42.2708010  59.8877520   3.6570600
  42.2943030  58.6131750   2.8404940  53.8640720  57.5601740   6.7194930
  53.1592890  57.9483450   6.2010040  54.1298640  58.2552030   7.3215860
  40.0465890  54.0295110   7.2829000  40.0484330  54.5467500   6.4774900
  39.2170200  53.5525290   7.2598930  41.2968740  63.6690290   5.4602500
  40.9638120  64.2959210   6.1023570  41.4735420  64.1952170   4.6804170
  49.8102650  57.4835370   2.9278840  49.1058220  57.7720260   3.5081950
  50.1714810  58.2935480   2.5678400  39.7281220  55.7405070   5.2899450
  40.0698030  56.5847120   4.9953320  38.7897030  55.8888810   5.4064790
  40.5087840  65.6371090   7.2751680  41.1261840  66.3122170   6.9936130
  39.6480960  66.0459070   7.1839180  51.4265430  67.1010500   5.1906320
  50.7428950  67.7709610   5.1822990  51.9659720  67.2991150   4.4251180
  52.8789570  56.9290160   3.3188050  51.9314480  56.9629140   3.4503480
  53.2039560  57.7429110   3.7037410  48.9624170  68.9454630   3.9051500
  48.9751330  68.5416920   3.0373760  48.4099390  69.7201920   3.8012930
  48.3609610  63.8484470   5.2334110  48.7778400  63.6344580   4.3987570
  49.0849430  64.1057260   5.8042730  52.3071710  62.2471690   5.3250350
  51.4790340  62.3164780   4.8500480  52.9022190  62.8326000   4.8566180
  49.2713720  59.0341010   6.2705220  48.8584900  59.8594720   6.5245210
  48.5389670  58.4486050   6.0781580  41.8728210  65.5068470   3.2963100
  41.5756500  64.9013940   2.6170880  42.8228030  65.5445780   3.1852460
  40.1175130  58.5944120   4.9122930  40.6689720  58.7039460   4.1376180
  40.6318640  58.9681720   5.6278160  49.9613820  69.0800340   6.9586200
  49.4844380  69.8872530   6.7658810  49.2775610  68.4278670   7.1112410
  40.9646640  65.2450160   9.9470900  40.0675170  65.4690130  10.1944300
  40.9899510  65.3685100   8.9982300  39.7917860  62.1163480   8.5228270
  39.6525630  62.9886280   8.8915670  38.9099220  61.7736290   8.3776210
  41.5898210  68.0585180  10.7313420  41.5613640  68.4628130   9.8641850
  41.4263180  67.1295540  10.5685020  53.5413030  68.8412280  12.0277590
  54.0172750  69.3195170  12.7066670  54.1620190  68.7729770  11.3023090
  35.7436510  63.8861030   4.4399180  35.8216930  64.0209800   3.4954900
  36.3578190  63.1776920   4.6327300  52.9446280  66.0325130   9.1877600
  53.0709340  65.7937010   8.2694780  52.9867660  65.2009670   9.6599680
  46.8063020  69.7353130   7.7572410  47.3207690  69.6461140   8.5594840
  45.9632100  70.0812830   8.0500320  52.7970290  58.0857590  10.1527340
  52.1814560  58.5937260   9.6242800  52.4766710  57.1855920  10.0953280
  35.7996030  64.9275200   6.9793640  35.9627070  64.4580560   6.1613010
  36.2648480  64.4198760   7.6442480  40.5714800  54.0580960   2.0154210
  40.1282950  54.8390500   1.6838730  41.1299790  54.3810850   2.7225150
  44.8584610  56.9249480   7.6189530  44.3963980  57.1332500   8.4309470
  44.4562720  56.1108830   7.3160200  49.8589120  58.1458430   8.7486190
  49.0082710  57.8464180   9.0695260  49.6990910  58.3900440   7.8370010
  46.9538830  59.6460180  10.8484980  47.2792240  58.8123930  10.5087210
  47.7419160  60.1688700  10.9963310  42.6090700  54.6028290   3.8743810
  42.9063030  55.5091120   3.7935830  43.1576260  54.1147070   3.2603380
  42.8028230  60.0800110  10.4095730  42.7071830  59.1394840  10.2596130
  43.6460210  60.3015180  10.0143800  37.9338770  56.4913780   8.5629510
  37.5402160  57.3388990   8.7702290  37.2457170  55.8540150   8.7538150
  44.5083820  56.5748750  11.6326250  43.8182140  56.3820950  12.2672340
  45.2516120  56.8583390  12.1650550  35.2355820  54.4142240   2.5959590
  34.9468870  54.9845100   3.3084570  35.9801580  53.9346690   2.9590820
  46.7846790  60.4147190   4.4680170  46.0527910  60.9234000   4.8170270
  46.3871130  59.5977170   4.1668950  43.2224180  57.0901390   2.8732660
  43.2260240  56.6491340   2.0237200  44.1175300  57.4118720   2.9804480
  47.2472700  55.8680870   3.8803110  47.2645440  56.3189520   4.7244960
  46.9988280  54.9686510   4.0936550  50.6743450  53.2813050   9.7189490
  50.9989220  52.5502710  10.2447470  50.7099960  52.9626690   8.8170480
  37.3735010  64.3026630   9.1389450  36.9889800  63.6620300   9.7372410
  37.6847200  65.0062750   9.7084180  43.5232150  61.1503170   4.6198070
  43.8902280  60.6761740   5.3659410  43.3337210  62.0244740   4.9606410
  41.3131520  60.1911810   6.9382280  41.0088590  61.0703790   7.1632640
  42.2677980  60.2511600   6.9739720  50.6001290  63.3938160   3.3275520
  51.3200410  63.8893450   2.9371630  50.3983110  62.7156050   2.6829390
  45.9820090  63.4647220   9.2144520  45.9157400  62.5442890   8.9602110
  45.3525230  63.5622660   9.9289160  37.3695250  61.0314550   8.0853640
  37.0110190  61.6968400   8.6726980  37.0749810  60.1998100   8.4566260
  40.5708370  61.4898790  10.9693190  40.2708510  61.6355970  10.0721010
  41.3419610  60.9304080  10.8766580  45.9136820  66.2867790   8.9648320
  45.9281360  65.3548750   8.7467230  45.2061920  66.3727550   9.6038090
  52.1248030  62.9275130   8.3116900  51.3996220  63.5203910   8.1146290
  52.6523490  62.9198670   7.5130270  45.3470720  67.9285360   6.0588820
  45.9912940  68.1344740   6.7362240  45.7100160  67.1673760   5.6059670
  46.6202800  65.9317710   4.7766270  47.2625030  65.2310870   4.8898440
  47.1452150  66.7116150   4.5963160  48.3940420  66.7312610   7.9802330
  48.7296660  67.3179300   8.6580250  47.4740760  66.6005320   8.2100120
  35.9443820  54.5207790   8.7625740  35.2302340  54.7204710   9.3678350
  36.3638860  53.7447360   9.1340540  36.2316410  68.5088050   9.7492270
  36.3407530  67.5682790   9.6087660  35.5796970  68.7742800   9.1006000
  44.2229000  66.7803940  11.1490390  43.9025870  66.0613180  11.6936080
  43.5487360  67.4559010  11.2226450  47.4382600  57.0130100   6.5127190
  47.8063420  56.1925310   6.8406760  46.5780800  57.0731990   6.9282840
  44.3984590  59.6669690   6.7365160  44.8969840  60.1415510   7.4017010
  44.5407540  58.7433210   6.9435190  51.6051450  55.8837650   7.5793550
  51.1025050  56.6243050   7.9187360  52.4208110  56.2721650   7.2630340
  51.8999040  68.2979680   2.7009170  52.0246460  69.1210850   3.1732980
  52.7664600  68.0870410   2.3533320  39.3716570  70.3910890   2.3726300
  40.1079050  69.8426350   2.6434870  39.7557490  71.2566900   2.2332290
  38.3774850  69.5756960  11.5611880  39.1787580  69.8969010  11.9747280
  37.8626670  69.2152540  12.2831790  47.2139480  65.6836830  11.5087290
  46.6077640  65.7068430  10.7683040  46.9093590  64.9519870  12.0454540
  48.6439850  69.4117120  10.1196700  49.5961600  69.3275140  10.0696940
  48.4968070  70.0758830  10.7930490  36.0972660  62.0630420  10.5047930
  36.6011680  61.4837700  11.0764160  35.3580080  62.3470650  11.0424300
  43.1510600  63.4701410  10.0383450  42.3856270  64.0386410   9.9538120
  43.3326560  63.1777620   9.1451680  50.2933950  65.2006740  10.5958470
  51.0343420  65.5382500  10.0925930  49.5306630  65.3698800  10.0428240
  38.1295740  60.2060010  11.3998000  38.1701080  59.9073880  12.3083230
  38.9841240  60.6067620  11.2405520  40.0701550  58.7852110   9.3672490
  39.5398010  58.2943060   8.7395830  40.7389620  59.2136310   8.8330420
  48.9679610  63.2521570   9.1313680  49.3820630  63.4066650   9.9804100
  48.0330610  63.3776790   9.2939460  49.4401780  60.5917730  11.1352830
  50.0222550  59.8370050  11.0473310  49.6163550  61.1225170  10.3584310
  40.5573850  55.7514480   9.4469780  40.4630720  55.1335230   8.7220650
  39.9771240  56.4780770   9.2199690  43.3235290  54.3087720   6.4797170
  42.8752590  54.3311980   5.6342720  42.6900490  53.9106740   7.0767470
  43.7294840  63.2042050   7.1009610  44.1482950  64.0474780   6.9285850
  42.8103470  63.3414090   6.8716390  46.0658740  60.9358230   8.4847450
  46.1854950  60.3399370   9.2242290  46.9252740  60.9727920   8.0648750
  48.4046640  61.4895420   7.0609960  47.8781860  62.0138040   6.4575100
  48.7477980  62.1222810   7.6919690  41.5802260  69.5095060   8.2167340
  41.0423350  70.2341120   7.8976040  41.8336220  69.0325400   7.4264680
  42.8327510  57.4779580   9.7423270  43.4227200  57.1695430  10.4301090
  42.0147750  57.0059330   9.8983170  47.6520940  57.0945390   9.9756290
  46.9636460  56.4326930   9.9106280  48.3726960  56.6483660  10.4204750
  44.4364470  70.7446270   8.4753990  44.3623170  71.6481410   8.7826360
  43.5343310  70.4258170   8.4476060  36.3281970  68.9391450   4.5169240
  35.8912960  69.1192250   5.3493390  36.8959650  69.6966070   4.3750960
  51.9644150  68.4408450   8.8046550  51.3646140  68.5001010   8.0610470
  52.0938050  67.5013430   8.9343400  50.6495790  65.1660430   6.9022710
  49.8355630  65.5957590   7.1648500  51.0569990  65.7778840   6.2891760
  37.1982330  61.8364250   5.4161460  37.5655370  61.7491650   6.2957480
  36.6293150  61.0730800   5.3168320  51.9986190  60.3048630   8.4291930
  51.7672280  60.0761380   7.5289880  52.2590740  61.2248180   8.3836820
  36.7498330  58.7473340   9.3219880  35.8554380  58.7140100   9.6613590
  37.2895880  58.9460130  10.0871130  50.4374260  55.5305060  11.2071630
  51.3144440  55.5388460  11.5905630  50.4495100  54.7935900  10.5963980
  52.0627250  59.4674470   5.6179200  51.1129960  59.4338010   5.7324190
  52.2440260  60.3774580   5.3828970  37.2538040  53.0221670   3.6703100
  37.9014230  52.4719050   3.2298260  37.6739880  53.2764820   4.4918910
  51.1490380  53.2163030   7.0272740  51.7862600  53.8297170   7.3931930
  51.2965270  53.2523690   6.0821970  37.0070040  53.1777340   6.4128420
  36.6584860  53.6341160   7.1786600  36.6757740  52.2834470   6.4950850
  38.6134410  66.3496940  10.5781610  38.5704040  65.9789850  11.4596070
  38.7445420  67.2874510  10.7183430  42.3140440  67.9056530   6.1791330
  42.0731800  68.1731090   5.2921850  43.2543080  68.0762260   6.2342190
  44.5194860  54.3689220   9.9347840  44.4583750  54.9611050  10.6843250
  45.4595240  54.2615180   9.7898100  47.1569420  54.0259280   9.5740130
  47.7709830  54.3438570   8.9121210  47.7018980  53.5407870  10.1935990
  53.5744600  69.9250910   6.9801970  53.0802880  70.3219780   6.2629100
  52.9657890  69.3000120   7.3739250  37.6790680  52.7053540   9.6879190
  38.2273670  52.5241590   8.9245300  37.7445990  51.9147650  10.2235500
  38.4522440  69.2959190   7.6979390  37.8582760  69.1643890   8.4369430
  38.4446280  68.4597330   7.2321490  47.8977460  52.5891420   5.9009420
  47.0237300  52.9226530   5.6982350  47.7888210  52.1164600   6.7261290
  48.8049440  54.7962290   7.2851140  48.4762800  53.9814050   6.9052870
  49.7531740  54.7532100   7.1616830  51.2584050  70.5674330   4.2588710
  50.7987020  71.3190140   3.8846730  50.6296510  69.8480800   4.2003510
  38.0834670  66.6617570   6.6487430  37.3568730  66.0422860   6.5813380
  38.1443820  67.0558180   5.7785510  41.6879770  68.8762570   3.4336840
  42.2044790  68.2649930   2.9085100  42.3377150  69.3791350   3.9247850
  44.4275270  69.7671060   4.2605820  44.7153080  69.5125360   3.3838830
  44.9398490  69.2148420   4.8511390  45.6452280  53.5061260   4.8402330
  44.8624070  53.9806760   5.1199090  45.3515210  52.6016090   4.7315510
  50.1973350  54.2084360   2.8851420  50.6381440  54.1529460   2.0373020
  49.9280940  55.1242370   2.9561600  44.4947630  70.6887160  11.6274020
  45.4214940  70.4531430  11.6709980  44.4798060  71.5159160  11.1460050
  41.6811240  53.3531910  11.3915900  41.3995510  53.8565510  10.6276720
  42.0630940  52.5553660  11.0258030  48.2826700  52.7685490  11.9696370
  48.1692150  53.0880100  12.8647890  49.0996440  53.1698000  11.6733650
  51.0625190  69.9157020  11.4515060  51.8550510  69.4206250  11.2441020
  51.3558340  70.5947160  12.0590670  47.1884850  42.0134470  76.2048560
  47.1078900  41.0989080  75.9340270  46.7749270  42.5101540  75.4988270
  45.3202890  43.7913490  78.0857830  44.5444990  43.3113930  78.3756400
  45.9715820  43.1119140  77.9113990  49.3410320  48.1973680  76.8656960
  48.8791850  47.4260920  77.1944130  50.1535870  48.2239750  77.3709410
  37.7460670  39.0635190  72.7475980  36.8577370  39.4051160  72.6455860
  38.0301860  38.8635510  71.8556810  35.7093680  41.6640840  78.6315680
  36.2809790  40.8963040  78.6319320  35.7095220  41.9629600  77.7222290
  45.5673630  50.4831690  76.4860950  44.9485070  50.9389190  75.9155390
  46.4225410  50.6383150  76.0850650  44.7611880  46.4670680  78.0927990
  44.6920160  45.5260620  77.9317120  45.5231740  46.5572090  78.6650560
  45.7917050  39.2741060  78.3196920  46.1681870  38.4012940  78.2070590
  45.6936560  39.6099760  77.4287360  39.9222060  37.6466690  73.7814360
  40.0288810  38.5470420  74.0883120  39.0114420  37.5984660  73.4909010
  49.5741170  36.7691500  75.2525260  50.3950790  36.2788070  75.2950740
  49.6075250  37.3589160  76.0057100  41.7629790  40.6153060  78.1139540
  42.2708010  41.1134030  78.7544560  42.2943030  39.8388260  77.9378900
  46.4336980  45.3670930  73.8792860  45.8154250  45.8320380  73.3155580
  46.9460230  46.0598410  74.2962370  49.8102650  38.7091880  78.0252800
  49.1058220  38.9976770  78.6055910  50.1714810  39.5191990  77.6652360
  35.8020180  46.0527460  71.2532490  35.4248160  46.5414560  70.5217390
  36.0593250  46.7252740  71.8839020  52.8789570  38.1546670  78.4162010
  51.9314480  38.1885650  78.5477440  53.2039560  38.9685620  78.8011370
  43.4109110  34.4543850  76.7118000  43.7184090  33.8990740  75.9953500
  42.4809810  34.5888310  76.5290990  50.2569590  46.8927360  74.0915630
  50.1465920  45.9501690  74.2165050  50.2537840  47.2543000  74.9778390
  45.7989870  42.5192680  73.4478120  44.8719150  42.4530060  73.6766590
  45.9514690  43.4572810  73.3333360  45.7858950  38.7909680  70.4445280
  44.8462620  38.9523640  70.5297740  46.1042210  39.5095360  69.8981270
  49.8287160  44.0812980  73.9513370  49.2099580  43.7432530  73.3039670
  49.8111610  43.4372740  74.6592560  41.4046510  43.0457420  76.2297850
  41.0003510  42.3334670  75.7343750  41.4909630  42.7010660  77.1185890
  41.8728210  46.7324980  78.3937060  41.5756500  46.1270450  77.7144840
  42.8228030  46.7702290  78.2826420  48.0051860  43.3199790  70.9586120
  48.4445140  42.4822220  70.8123940  48.7180280  43.9529190  71.0450260
  46.1147240  48.2595860  74.9267360  46.5543150  49.0020190  74.5122750
  46.0534130  48.5022430  75.8506320  51.5869000  34.5742600  69.2727160
  51.2741660  34.6669430  70.1726230  52.3481470  35.1523630  69.2224590
  38.1051140  41.9402400  73.7304500  37.9848740  42.6664490  73.1185770
  37.7952030  41.1705310  73.2532410  36.9884140  46.8117730  75.9479320
  36.5812220  46.9532320  75.0932920  37.8797150  46.5277890  75.7450530
  48.7817420  51.2464980  72.2830370  48.6218560  50.9567920  73.1812200
  48.6164130  50.4705110  71.7475600  41.2605800  51.0263510  74.0601990
  41.0848280  50.1099050  73.8469790  40.4061540  51.3850800  74.2999790
  48.4843550  48.7552540  70.8428370  47.7908710  48.7529830  70.1830650
  49.2266410  48.3311860  70.4122540  48.0493480  50.3815250  74.9176860
  48.5050430  49.6004630  75.2315480  48.3886000  51.0922070  75.4618040
  40.5714800  35.2837470  77.1128170  40.1282950  36.0647010  76.7812690
  41.1299790  35.6067360  77.8199110  43.6873620  34.9048170  71.9934000
  43.0627800  34.9008040  72.7187310  43.6003740  34.0379130  71.5969970
  40.3629020  40.4071040  74.8409420  40.1369940  40.1908210  75.7456040
  39.5821550  40.8399500  74.4955390  47.5926780  40.4134410  73.4400070
  46.9935670  41.1370210  73.2563690  48.1406390  40.3511190  72.6576520
  46.1991650  39.0497950  75.4703350  46.5921220  39.3670150  74.6572040
  46.5608500  38.1709830  75.5847870  35.2355820  35.6398750  77.6933550
  34.9468870  36.2101610  78.4058530  35.9801580  35.1603200  78.0564780
  35.4226050  39.5818870  68.9036270  35.3400720  40.5249630  69.0451260
  35.0709110  39.4393780  68.0248620  43.2224180  38.3157900  77.9706620
  43.2260240  37.8747850  77.1211160  44.1175300  38.6375230  78.0778440
  39.0726560  38.1984390  76.9300830  38.7326610  38.6759620  77.6867880
  38.3103880  37.7449510  76.5701930  43.2844330  39.3169980  70.9613380
  43.4057150  39.2756460  71.9099200  42.8992840  40.1794130  70.8060110
  42.2965830  41.6271120  70.3596680  41.7282730  41.1789370  69.7332590
  43.0054830  41.9863900  69.8261830  36.3872640  37.1203370  75.8465500
  36.1019560  36.7559040  76.6844120  36.3251500  36.3883830  75.2328640
  39.8413310  45.6229310  72.6323090  39.0675570  45.0826930  72.4721810
  40.5707940  45.1035920  72.2940850  50.6001290  44.6194670  78.4249480
  51.3200410  45.1149960  78.0345590  50.3983110  43.9412560  77.7803350
  46.0611230  36.0132630  72.5678870  45.2475840  35.5145800  72.4924180
  45.8673180  36.8530880  72.1515220  48.7759620  40.3852280  70.8641030
  49.6639240  40.6969510  70.6892370  48.7464710  39.5124530  70.4721610
  39.8850710  45.2909690  76.2701900  40.4029380  44.4877950  76.2158790
  39.4334730  45.2288830  77.1118730  44.7720210  46.5575970  71.5429200
  45.1135910  47.3018200  71.0472520  43.9432920  46.8707090  71.9054030
  51.0473890  41.6964120  70.3320890  50.9637610  42.1278340  69.4817330
  51.7668080  42.1562470  70.7647710  52.0761140  48.5506380  73.0603020
  51.4337300  47.8962000  73.3346740  51.6891800  48.9561470  72.2843690
  47.6547620  45.8791810  76.9074710  48.0071440  45.2819940  76.2476080
  46.7709950  45.5536040  77.0782960  43.7410900  46.6389500  74.3145120
  44.4282030  47.1858710  74.6952710  42.9543320  47.1830230  74.3494730
  35.8803300  42.2562320  69.8062200  36.7498150  42.5387120  70.0898120
  35.3893620  43.0698190  69.6911010  43.0438110  43.6435530  73.9270480
  43.5000890  44.4540780  74.1530670  42.6926320  43.3258670  74.7588970
  38.9449890  33.9873180  74.3993000  38.8164520  33.9791080  75.3477920
  38.1211910  34.3256270  74.0484010  50.4658520  47.4422840  69.5979370
  50.2396100  46.7253280  70.1904010  50.0754720  47.1935280  68.7601120
  36.2474550  51.4689700  70.3723830  36.6072190  52.0679040  69.7181100
  36.1066890  52.0149590  71.1458860  50.0474770  45.3594780  71.2593530
  49.7596470  45.8207470  72.0471410  50.8426940  44.8992550  71.5277750
  42.2643170  48.8520900  71.1897500  42.2553270  49.5850590  70.5742010
  41.3441530  48.6052480  71.2824460  37.8649810  44.0735790  71.9344260
  37.2577760  44.8134690  71.9439560  38.3399160  44.1635150  71.1082460
  50.8044630  37.1943550  72.4188710  50.1757790  37.2989220  71.7046940
  50.3096550  37.4140330  73.2082590  45.2502770  48.9149140  69.8522690
  45.3514750  48.7113130  68.9224670  44.3504510  48.6607420  70.0570470
  42.7728660  39.4729500  73.8346590  42.0644810  39.9415840  74.2760200
  43.0573140  38.8151510  74.4691780  46.8044090  36.1980160  75.2742380
  46.6811870  36.2166290  74.3251890  47.7528650  36.2459100  75.3940780
  43.8920880  51.4335460  74.5470360  44.1462380  51.3956850  73.6249730
  42.9433360  51.3068790  74.5398610  40.9763680  37.7814580  71.2097300
  41.8254210  38.2184730  71.1437490  40.6094950  38.0934840  72.0369360
  49.8973460  42.3527340  76.1228870  48.9563600  42.3677570  76.2976560
  50.2117530  41.5663300  76.5689170  39.8755100  44.0346940  69.6832830
  40.6418370  43.9228300  70.2458260  39.9529790  43.3384910  69.0309600
  38.5701860  41.4672010  70.3665720  38.6505450  40.5199520  70.4783120
  39.4621610  41.7978890  70.4726380  51.8999040  49.5236190  77.7983130
  52.0246460  50.3467360  78.2706940  52.7664600  49.3126920  77.4507280
  39.3716570  51.6167400  77.4700260  40.1079050  51.0682860  77.7408830
  39.7557490  52.4823410  77.3306250  36.2562050  47.6840970  73.3441770
  35.3301830  47.9262110  73.3347180  36.7218480  48.5115230  73.2226520
  42.4818880  50.7897710  69.2925830  43.2747490  51.0786540  68.8407620
  41.9623230  50.3589880  68.6138310  51.5349050  50.0167840  70.7162570
  51.2490560  49.6032980  69.9016750  51.3368600  50.9455550  70.5963090
  42.9996280  46.0101120  69.1568180  42.8946920  45.3953470  69.8829560
  42.8320500  45.4867010  68.3731190  46.2399010  45.0721150  69.7610170
  45.6909110  45.5190450  70.4052910  46.8618270  44.5670400  70.2847840
  41.9074130  44.0312070  71.6575470  42.3290550  43.8651940  72.5006860
  42.0324970  43.2212300  71.1630610  44.4201770  43.0549680  68.9052570
  44.9407430  42.3398700  68.5393720  45.0670170  43.6935550  69.2053080
  40.8033030  40.1045300  68.6033630  40.6022090  39.2412660  68.9646970
  40.6325080  40.0178660  67.6655230  48.2821340  34.9153530  71.1320510
  48.5623630  34.0721430  71.4879930  47.5087070  35.1476640  71.6459260
  39.6015830  37.2045920  68.5911510  39.9041730  37.2113350  67.6830660
  40.3410420  36.8543780  69.0879170  42.8200760  36.1480540  69.5767710
  42.4722760  35.4704530  68.9970160  43.0213530  35.6870050  70.3911100
  44.9849800  51.1361290  71.1954310  45.8800590  51.4746260  71.2173070
  45.0167430  50.4140700  70.5678590  38.6245960  46.5088340  69.4241310
  39.0620830  47.0518010  70.0798890  39.1093690  45.6835290  69.4337650
  35.8391760  49.2977370  76.8761570  36.1694770  48.4298430  76.6440210
  36.2682760  49.5035890  77.7066530  40.4353680  47.6286380  74.5363540
  40.1349220  47.5051350  75.4367450  40.3291170  46.7694970  74.1279270
  53.2045600  47.4082780  69.2390220  52.3738560  47.4759430  69.7097450
  53.3817430  48.2986900  68.9357080  52.6602060  44.1530260  71.7424420
  53.4220970  44.7226910  71.8484110  52.6756430  43.5857460  72.5132730
  36.1606400  42.6768190  75.9732080  35.5055240  42.4079830  75.3291780
  36.9984350  42.5672670  75.5234060  53.6662030  45.0080360  76.5866350
  54.0370860  44.2247680  76.1802320  54.3063960  45.6969460  76.4083650
  52.7121230  44.4464630  68.8996940  52.9870070  45.3543510  68.7716160
  52.5231970  44.3827160  69.8358930  49.1096840  37.4709480  70.1950570
  49.5281720  37.2840460  69.3547230  48.8032900  36.6188530  70.5053500
  52.6086570  42.3833620  73.8926370  52.2330170  41.6161550  73.4607660
  51.8789690  42.7656320  74.3801300  35.3744480  39.8867120  71.9157410
  34.4708560  40.1497320  71.7409070  35.8585100  40.1578290  71.1357370
  51.8837530  40.6091110  77.1933610  52.4075010  40.1153760  76.5623780
  52.4696950  40.7441470  77.9381180  37.9171690  38.9432660  69.8251790
  38.6263390  38.5215880  69.3399070  37.2011630  39.0107890  69.1935140
  37.5645850  34.9971990  68.8654440  38.2873980  35.5380930  69.1835660
  37.8370370  34.7235410  67.9895980  51.3737500  39.8664460  73.1326020
  51.8696620  39.6335330  73.9174900  51.1753570  39.0276300  72.7163660
  52.8024660  38.5025410  75.6663700  52.6923940  38.3481450  76.6045970
  53.5632250  37.9746350  75.4239110  53.6914930  36.3333330  68.9069840
  54.6164240  36.2014510  68.6988130  53.6690720  36.4126150  69.8606290
  53.7653420  37.1043990  71.5326550  52.9704920  37.0389110  72.0619460
  53.9696700  38.0394630  71.5211900  50.7071840  51.1435540  75.5264940
  51.3030910  50.8220110  74.8499360  50.9649990  50.6707360  76.3178210
  50.1973350  35.4340870  77.9825380  50.6381440  35.3785970  77.1346980
  49.9280940  36.3498880  78.0535560  52.0611920  35.0656110  75.9934200
  52.0000320  34.1217330  75.8465220  52.8403950  35.1736200  76.5387660
  36.3664670  51.2048470  74.9558150  36.1986710  50.5719150  75.6540040
  35.4999180  51.4107870  74.6052340  36.9892690  35.0365250  72.4590010
  37.7472050  35.1494130  71.8854040  36.5269860  35.8734450  72.4133440
  43.5306500  37.1504520  75.4492320  42.7181010  36.7761410  75.1088200
  44.0348140  36.3949600  75.7513510  48.0331480  33.8146970  76.6875390
  48.6360850  34.3867180  77.1623910  47.2924470  34.3786410  76.4649290
  51.1766080  34.2168530  71.9615670  51.3716710  35.1151980  72.2283100
  50.3895950  33.9855610  72.4548620  37.9727370  49.8981700  72.4008290
  37.4474990  50.2789730  71.6970250  37.8971950  50.5232470  73.1218000
  39.3617840  35.5629300  70.9991980  39.8910600  34.7759100  70.8699930
  39.9946160  36.2420490  71.2327510  41.5555680  35.3004440  74.0537370
  40.9258420  34.5991750  74.2207500  41.0160820  36.0608570  73.8370530
  52.7292690  51.4569240  73.7222230  52.9044880  50.7706980  73.0783150
  52.0314260  51.9816290  73.3298900  40.5720340  51.8464080  71.2757540
  41.3039160  51.5623360  70.7281430  40.8314010  51.6077360  72.1656920
  39.7335130  47.9628810  71.2803870  39.1044010  48.4313910  71.8289700
  39.8482960  47.1178030  71.7150060  45.3202890  43.7913490  59.3114340
  44.5444990  43.3113930  59.6012910  45.9715820  43.1119140  59.1370500
  39.3368720  44.1033300  60.1890100  38.5053600  43.8482010  60.5886610
  39.9449700  44.1744070  60.9248020  49.3410320  48.1973680  58.0913470
  48.8791850  47.4260920  58.4200640  50.1535870  48.2239750  58.5965920
  39.3169980  48.1373390  60.3848120  39.6198020  47.2471130  60.2058340
  40.0613570  48.6943610  60.1570370  35.7093680  41.6640840  59.8572190
  36.2809790  40.8963040  59.8575830  35.7095220  41.9629600  58.9478800
  45.5673630  50.4831690  57.7117460  44.9485070  50.9389190  57.1411900
  46.4225410  50.6383150  57.3107160  44.7611880  46.4670680  59.3184500
  44.6920160  45.5260620  59.1573630  45.5231740  46.5572090  59.8907070
  36.9518550  37.0725200  61.6441120  36.7721390  36.1750950  61.9243880
  36.5498630  37.6197070  62.3188070  37.5705220  39.5685700  60.2523460
  38.2515330  39.8324070  60.8710860  37.2553270  38.7286570  60.5861470
  41.7629790  40.6153060  59.3396050  42.2708010  41.1134030  59.9801070
  42.2943030  39.8388260  59.1635410  40.0465890  35.2551620  63.6059470
  40.0484330  35.7724010  62.8005370  39.2170200  34.7781800  63.5829400
  41.2968740  44.8946800  61.7832970  40.9638120  45.5215720  62.4254040
  41.4735420  45.4208680  61.0034640  39.7281220  36.9661580  61.6129920
  40.0698030  37.8103630  61.3183790  38.7897030  37.1145320  61.7295260
  40.5087840  46.8627600  63.5982150  41.1261840  47.5378680  63.3166600
  39.6480960  47.2715580  63.5069650  51.4265430  48.3267010  61.5136790
  50.7428950  48.9966120  61.5053460  51.9659720  48.5247660  60.7481650
  48.9624170  50.1711140  60.2281970  48.9751330  49.7673430  59.3604230
  48.4099390  50.9458430  60.1243400  48.3609610  45.0740980  61.5564580
  48.7778400  44.8601090  60.7218040  49.0849430  45.3313770  62.1273200
  52.3071710  43.4728200  61.6480820  51.4790340  43.5421290  61.1730950
  52.9022190  44.0582510  61.1796650  49.2713720  40.2597520  62.5935690
  48.8584900  41.0851230  62.8475680  48.5389670  39.6742560  62.4012050
  41.4046510  43.0457420  57.4554360  41.0003510  42.3334670  56.9600260
  41.4909630  42.7010660  58.3442400  41.8728210  46.7324980  59.6193570
  41.5756500  46.1270450  58.9401350  42.8228030  46.7702290  59.5082930
  40.1175130  39.8200630  61.2353400  40.6689720  39.9295970  60.4606650
  40.6318640  40.1938230  61.9508630  49.9613820  50.3056850  63.2816670
  49.4844380  51.1129040  63.0889280  49.2775610  49.6535180  63.4342880
  40.9646640  46.4706670  66.2701370  40.0675170  46.6946640  66.5174770
  40.9899510  46.5941610  65.3212770  39.7917860  43.3419990  64.8458740
  39.6525630  44.2142790  65.2146140  38.9099220  42.9992800  64.7006680
  46.1147240  48.2595860  56.1523870  46.5543150  49.0020190  55.7379260
  46.0534130  48.5022430  57.0762830  41.5898210  49.2841690  67.0543890
  41.5613640  49.6884640  66.1872320  41.4263180  48.3552050  66.8915490
  38.1051140  41.9402400  54.9561010  37.9848740  42.6664490  54.3442280
  37.7952030  41.1705310  54.4788920  53.5413030  50.0668790  68.3508060
  54.0172750  50.5451680  69.0297140  54.1620190  49.9986280  67.6253560
  35.7436510  45.1117540  60.7629650  35.8216930  45.2466310  59.8185370
  36.3578190  44.4033430  60.9557770  52.9446280  47.2581640  65.5108070
  53.0709340  47.0193520  64.5925250  52.9867660  46.4266180  65.9830150
  46.8063020  50.9609640  64.0802880  47.3207690  50.8717650  64.8825310
  45.9632100  51.3069340  64.3730790  41.2605800  51.0263510  55.2858500
  41.0848280  50.1099050  55.0726300  40.4061540  51.3850800  55.5256300
  48.0493480  50.3815250  56.1433370  48.5050430  49.6004630  56.4571990
  48.3886000  51.0922070  56.6874550  52.7970290  39.3114100  66.4757810
  52.1814560  39.8193770  65.9473270  52.4766710  38.4112430  66.4183750
  35.7996030  46.1531710  63.3024110  35.9627070  45.6837070  62.4843480
  36.2648480  45.6455270  63.9672950  44.8584610  38.1505990  63.9420000
  44.3963980  38.3589010  64.7539940  44.4562720  37.3365340  63.6390670
  49.8589120  39.3714940  65.0716660  49.0082710  39.0720690  65.3925730
  49.6990910  39.6156950  64.1600480  46.9538830  40.8716690  67.1715450
  47.2792240  40.0380440  66.8317680  47.7419160  41.3945210  67.3193780
  42.8028230  41.3056620  66.7326200  42.7071830  40.3651350  66.5826600
  43.6460210  41.5271690  66.3374270  37.9338770  37.7170290  64.8859980
  37.5402160  38.5645500  65.0932760  37.2457170  37.0796660  65.0768620
  44.5083820  37.8005260  67.9556720  43.8182140  37.6077460  68.5902810
  45.2516120  38.0839900  68.4881020  46.7846790  41.6403700  60.7910640
  46.0527910  42.1490510  61.1400740  46.3871130  40.8233680  60.4899420
  43.2224180  38.3157900  59.1963130  43.2260240  37.8747850  58.3467670
  44.1175300  38.6375230  59.3034950  50.6743450  34.5069560  66.0419960
  50.9989220  33.7759220  66.5677940  50.7099960  34.1883200  65.1400950
  37.3735010  45.5283140  65.4619920  36.9889800  44.8876810  66.0602880
  37.6847200  46.2319260  66.0314650  43.5232150  42.3759680  60.9428540
  43.8902280  41.9018250  61.6889880  43.3337210  43.2501250  61.2836880
  41.3131520  41.4168320  63.2612750  41.0088590  42.2960300  63.4863110
  42.2677980  41.4768110  63.2970190  39.8413310  45.6229310  53.8579600
  39.0675570  45.0826930  53.6978320  40.5707940  45.1035920  53.5197360
  50.6001290  44.6194670  59.6505990  51.3200410  45.1149960  59.2602100
  50.3983110  43.9412560  59.0059860  45.9820090  44.6903730  65.5374990
  45.9157400  43.7699400  65.2832580  45.3525230  44.7879170  66.2519630
  39.8850710  45.2909690  57.4958410  40.4029380  44.4877950  57.4415300
  39.4334730  45.2288830  58.3375240  37.3695250  42.2571060  64.4084110
  37.0110190  42.9224910  64.9957450  37.0749810  41.4254610  64.7796730
  40.5708370  42.7155300  67.2923660  40.2708510  42.8612480  66.3951480
  41.3419610  42.1560590  67.1997050  45.9136820  47.5124300  65.2878790
  45.9281360  46.5805260  65.0697700  45.2061920  47.5984060  65.9268560
  52.1248030  44.1531640  64.6347370  51.3996220  44.7460420  64.4376760
  52.6523490  44.1455180  63.8360740  45.3470720  49.1541870  62.3819290
  45.9912940  49.3601250  63.0592710  45.7100160  48.3930270  61.9290140
  46.6202800  47.1574220  61.0996740  47.2625030  46.4567380  61.2128910
  47.1452150  47.9372660  60.9193630  48.3940420  47.9569120  64.3032800
  48.7296660  48.5435810  64.9810720  47.4740760  47.8261830  64.5330590
  35.9443820  35.7464300  65.0856210  35.2302340  35.9461220  65.6908820
  36.3638860  34.9703870  65.4571010  36.2316410  49.7344560  66.0722740
  36.3407530  48.7939300  65.9318130  35.5796970  49.9999310  65.4236470
  44.2229000  48.0060450  67.4720860  43.9025870  47.2869690  68.0166550
  43.5487360  48.6815520  67.5456920  42.2643170  48.8520900  52.4154010
  42.2553270  49.5850590  51.7998520  41.3441530  48.6052480  52.5080970
  37.8649810  44.0735790  53.1600770  37.2577760  44.8134690  53.1696070
  38.3399160  44.1635150  52.3338970  47.4382600  38.2386610  62.8357660
  47.8063420  37.4181820  63.1637230  46.5780800  38.2988500  63.2513310
  44.3984590  40.8926200  63.0595630  44.8969840  41.3672020  63.7247480
  44.5407540  39.9689720  63.2665660  43.8920880  51.4335460  55.7726870
  44.1462380  51.3956850  54.8506240  42.9433360  51.3068790  55.7655120
  51.6051450  37.1094160  63.9024020  51.1025050  37.8499560  64.2417830
  52.4208110  37.4978160  63.5860810  51.8999040  49.5236190  59.0239640
  52.0246460  50.3467360  59.4963450  52.7664600  49.3126920  58.6763790
  39.3716570  51.6167400  58.6956770  40.1079050  51.0682860  58.9665340
  39.7557490  52.4823410  58.5562760  36.2562050  47.6840970  54.5698280
  35.3301830  47.9262110  54.5603690  36.7218480  48.5115230  54.4483030
  38.3774850  50.8013470  67.8842350  39.1787580  51.1225520  68.2977750
  37.8626670  50.4409050  68.6062260  47.2139480  46.9093340  67.8317760
  46.6077640  46.9324940  67.0913510  46.9093590  46.1776380  68.3685010
  48.6439850  50.6373630  66.4427170  49.5961600  50.5531650  66.3927410
  48.4968070  51.3015340  67.1160960  36.0972660  43.2886930  66.8278400
  36.6011680  42.7094210  67.3994630  35.3580080  43.5727160  67.3654770
  43.1510600  44.6957920  66.3613920  42.3856270  45.2642920  66.2768590
  43.3326560  44.4034130  65.4682150  50.2933950  46.4263250  66.9188940
  51.0343420  46.7639010  66.4156400  49.5306630  46.5955310  66.3658710
  38.1295740  41.4316520  67.7228470  38.1701080  41.1330390  68.6313700
  38.9841240  41.8324130  67.5635990  40.0701550  40.0108620  65.6902960
  39.5398010  39.5199570  65.0626300  40.7389620  40.4392820  65.1560890
  48.9679610  44.4778080  65.4544150  49.3820630  44.6323160  66.3034570
  48.0330610  44.6033300  65.6169930  49.4401780  41.8174240  67.4583300
  50.0222550  41.0626560  67.3703780  49.6163550  42.3481680  66.6814780
  40.5573850  36.9770990  65.7700250  40.4630720  36.3591740  65.0451120
  39.9771240  37.7037280  65.5430160  43.3235290  35.5344230  62.8027640
  42.8752590  35.5568490  61.9573190  42.6900490  35.1363250  63.3997940
  43.7294840  44.4298560  63.4240080  44.1482950  45.2731290  63.2516320
  42.8103470  44.5670600  63.1946860  46.0658740  42.1614740  64.8077920
  46.1854950  41.5655880  65.5472760  46.9252740  42.1984430  64.3879220
  48.4046640  42.7151930  63.3840430  47.8781860  43.2394550  62.7805570
  48.7477980  43.3479320  64.0150160  41.5802260  50.7351570  64.5397810
  41.0423350  51.4597630  64.2206510  41.8336220  50.2581910  63.7495150
  42.8327510  38.7036090  66.0653740  43.4227200  38.3951940  66.7531560
  42.0147750  38.2315840  66.2213640  47.6520940  38.3201900  66.2986760
  46.9636460  37.6583440  66.2336750  48.3726960  37.8740170  66.7435220
  44.4364470  51.9702780  64.7984460  44.3623170  52.8737920  65.1056830
  43.5343310  51.6514680  64.7706530  35.8391760  49.2977370  58.1018080
  36.1694770  48.4298430  57.8696720  36.2682760  49.5035890  58.9323040
  40.4353680  47.6286380  55.7620050  40.1349220  47.5051350  56.6623960
  40.3291170  46.7694970  55.3535780  36.3281970  50.1647960  60.8399710
  35.8912960  50.3448760  61.6723860  36.8959650  50.9222580  60.6981430
  51.9644150  49.6664960  65.1277020  51.3646140  49.7257520  64.3840940
  52.0938050  48.7269940  65.2573870  36.1606400  42.6768190  57.1988590
  35.5055240  42.4079830  56.5548290  36.9984350  42.5672670  56.7490570
  50.6495790  46.3916940  63.2253180  49.8355630  46.8214100  63.4878970
  51.0569990  47.0035350  62.6122230  37.1982330  43.0620760  61.7391930
  37.5655370  42.9748160  62.6187950  36.6293150  42.2987310  61.6398790
  51.9986190  41.5305140  64.7522400  51.7672280  41.3017890  63.8520350
  52.2590740  42.4504690  64.7067290  36.7498330  39.9729850  65.6450350
  35.8554380  39.9396610  65.9844060  37.2895880  40.1716640  66.4101600
  50.4374260  36.7561570  67.5302100  51.3144440  36.7644970  67.9136100
  50.4495100  36.0192410  66.9194450  35.3744480  39.8867120  53.1413920
  34.4708560  40.1497320  52.9665580  35.8585100  40.1578290  52.3613880
  51.1490380  34.4419540  63.3503210  51.7862600  35.0553680  63.7162400
  51.2965270  34.4780200  62.4052440  37.0070040  34.4033850  62.7358890
  36.6584860  34.8597670  63.5017070  36.6757740  33.5090980  62.8181320
  38.6134410  47.5753450  66.9012080  38.5704040  47.2046360  67.7826540
  38.7445420  48.5131020  67.0413900  42.3140440  49.1313040  62.5021800
  42.0731800  49.3987600  61.6152320  43.2543080  49.3018770  62.5572660
  44.5194860  35.5945730  66.2578310  44.4583750  36.1867560  67.0073720
  45.4595240  35.4871690  66.1128570  47.1569420  35.2515790  65.8970600
  47.7709830  35.5695080  65.2351680  47.7018980  34.7664380  66.5166460
  53.5744600  51.1507420  63.3032440  53.0802880  51.5476290  62.5859570
  52.9657890  50.5256630  63.6969720  37.6790680  33.9310050  66.0109660
  38.2273670  33.7498100  65.2475770  37.7445990  33.1404160  66.5465970
  38.4522440  50.5215700  64.0209860  37.8582760  50.3900400  64.7599900
  38.4446280  49.6853840  63.5551960  48.8049440  36.0218800  63.6081610
  48.4762800  35.2070560  63.2283340  49.7531740  35.9788610  63.4847300
  51.2584050  51.7930840  60.5819180  50.7987020  52.5446650  60.2077200
  50.6296510  51.0737310  60.5233980  38.0834670  47.8874080  62.9717900
  37.3568730  47.2679370  62.9043850  38.1443820  48.2814690  62.1015980
  41.6879770  50.1019080  59.7567310  42.2044790  49.4906440  59.2315570
  42.3377150  50.6047860  60.2478320  44.4275270  50.9927570  60.5836290
  44.7153080  50.7381870  59.7069300  44.9398490  50.4404930  61.1741860
  36.3664670  51.2048470  56.1814660  36.1986710  50.5719150  56.8796550
  35.4999180  51.4107870  55.8308850  44.4947630  51.9143670  67.9504490
  45.4214940  51.6787940  67.9940450  44.4798060  52.7415670  67.4690520
  41.6811240  34.5788420  67.7146370  41.3995510  35.0822020  66.9507190
  42.0630940  33.7810170  67.3488500  48.2826700  33.9942000  68.2926840
  48.1692150  34.3136610  69.1878360  49.0996440  34.3954510  67.9964120
  51.0625190  51.1413530  67.7745530  51.8550510  50.6462760  67.5671490
  51.3558340  51.8203670  68.3821140  47.1884850  42.0134470  19.8818090
  47.1078900  41.0989080  19.6109800  46.7749270  42.5101540  19.1757800
  45.7917050  39.2741060  21.9966450  46.1681870  38.4012940  21.8840120
  45.6936560  39.6099760  21.1056890  39.9222060  37.6466690  17.4583890
  40.0288810  38.5470420  17.7652650  39.0114420  37.5984660  17.1678540
  49.5741170  36.7691500  18.9294790  50.3950790  36.2788070  18.9720270
  49.6075250  37.3589160  19.6826630  53.8640720  38.7858250  25.4938420
  53.1592890  39.1739960  24.9753530  54.1298640  39.4808540  26.0959350
  49.8102650  38.7091880  21.7022330  49.1058220  38.9976770  22.2825440
  50.1714810  39.5191990  21.3421890  39.7281220  36.9661580  24.0642940
  40.0698030  37.8103630  23.7696810  38.7897030  37.1145320  24.1808280
  52.8789570  38.1546670  22.0931540  51.9314480  38.1885650  22.2246970
  53.2039560  38.9685620  22.4780900  43.4109110  34.4543850  20.3887530
  43.7184090  33.8990740  19.6723030  42.4809810  34.5888310  20.2060520
  50.2569590  46.8927360  17.7685160  50.1465920  45.9501690  17.8934580
  50.2537840  47.2543000  18.6547920  45.7858950  38.7909680  14.1214810
  44.8462620  38.9523640  14.2067270  46.1042210  39.5095360  13.5750800
  52.3071710  43.4728200  24.0993840  51.4790340  43.5421290  23.6243970
  52.9022190  44.0582510  23.6309670  49.8287160  44.0812980  17.6282900
  49.2099580  43.7432530  16.9809200  49.8111610  43.4372740  18.3362090
  49.2713720  40.2597520  25.0448710  48.8584900  41.0851230  25.2988700
  48.5389670  39.6742560  24.8525070  48.0051860  43.3199790  14.6355650
  48.4445140  42.4822220  14.4893470  48.7180280  43.9529190  14.7219790
  51.5869000  34.5742600  12.9496690  51.2741660  34.6669430  13.8495760
  52.3481470  35.1523630  12.8994120  48.7817420  51.2464980  15.9599900
  48.6218560  50.9567920  16.8581730  48.6164130  50.4705110  15.4245130
  48.4843550  48.7552540  14.5197900  47.7908710  48.7529830  13.8600180
  49.2266410  48.3311860  14.0892070  52.7970290  39.3114100  28.9270830
  52.1814560  39.8193770  28.3986290  52.4766710  38.4112430  28.8696770
  40.5714800  35.2837470  20.7897700  40.1282950  36.0647010  20.4582220
  41.1299790  35.6067360  21.4968640  49.8589120  39.3714940  27.5229680
  49.0082710  39.0720690  27.8438750  49.6990910  39.6156950  26.6113500
  43.6873620  34.9048170  15.6703530  43.0627800  34.9008040  16.3956840
  43.6003740  34.0379130  15.2739500  42.6090700  35.8284800  22.6487300
  42.9063030  36.7347630  22.5679320  43.1576260  35.3403580  22.0346870
  47.5926780  40.4134410  17.1169600  46.9935670  41.1370210  16.9333220
  48.1406390  40.3511190  16.3346050  46.1991650  39.0497950  19.1472880
  46.5921220  39.3670150  18.3341570  46.5608500  38.1709830  19.2617400
  35.4226050  39.5818870  12.5805800  35.3400720  40.5249630  12.7220790
  35.0709110  39.4393780  11.7018150  43.2224180  38.3157900  21.6476150
  43.2260240  37.8747850  20.7980690  44.1175300  38.6375230  21.7547970
  43.2844330  39.3169980  14.6382910  43.4057150  39.2756460  15.5868730
  42.8992840  40.1794130  14.4829640  47.2472700  37.0937380  22.6546600
  47.2645440  37.5446030  23.4988450  46.9988280  36.1943020  22.8680040
  42.2965830  41.6271120  14.0366210  41.7282730  41.1789370  13.4102120
  43.0054830  41.9863900  13.5031360  36.3872640  37.1203370  19.5235030
  36.1019560  36.7559040  20.3613650  36.3251500  36.3883830  18.9098170
  50.6001290  44.6194670  22.1019010  51.3200410  45.1149960  21.7115120
  50.3983110  43.9412560  21.4572880  46.0611230  36.0132630  16.2448400
  45.2475840  35.5145800  16.1693710  45.8673180  36.8530880  15.8284750
  48.7759620  40.3852280  14.5410560  49.6639240  40.6969510  14.3661900
  48.7464710  39.5124530  14.1491140  51.0473890  41.6964120  14.0090420
  50.9637610  42.1278340  13.1586860  51.7668080  42.1562470  14.4417240
  52.0761140  48.5506380  16.7372550  51.4337300  47.8962000  17.0116270
  51.6891800  48.9561470  15.9613220  38.9449890  33.9873180  18.0762530
  38.8164520  33.9791080  19.0247450  38.1211910  34.3256270  17.7253540
  50.4658520  47.4422840  13.2748900  50.2396100  46.7253280  13.8673540
  50.0754720  47.1935280  12.4370650  36.2474550  51.4689700  14.0493360
  36.6072190  52.0679040  13.3950630  36.1066890  52.0149590  14.8228390
  50.0474770  45.3594780  14.9363060  49.7596470  45.8207470  15.7240940
  50.8426940  44.8992550  15.2047280  47.4382600  38.2386610  25.2870680
  47.8063420  37.4181820  25.6150250  46.5780800  38.2988500  25.7026330
  50.8044630  37.1943550  16.0958240  50.1757790  37.2989220  15.3816470
  50.3096550  37.4140330  16.8852120  45.2502770  48.9149140  13.5292220
  45.3514750  48.7113130  12.5994200  44.3504510  48.6607420  13.7340000
  42.7728660  39.4729500  17.5116120  42.0644810  39.9415840  17.9529730
  43.0573140  38.8151510  18.1461310  46.8044090  36.1980160  18.9511910
  46.6811870  36.2166290  18.0021420  47.7528650  36.2459100  19.0710310
  40.9763680  37.7814580  14.8866830  41.8254210  38.2184730  14.8207020
  40.6094950  38.0934840  15.7138890  51.6051450  37.1094160  26.3537040
  51.1025050  37.8499560  26.6930850  52.4208110  37.4978160  26.0373830
  49.8973460  42.3527340  19.7998400  48.9563600  42.3677570  19.9746090
  50.2117530  41.5663300  20.2458700  38.5701860  41.4672010  14.0435250
  38.6505450  40.5199520  14.1552650  39.4621610  41.7978890  14.1495910
  51.8999040  49.5236190  21.4752660  52.0246460  50.3467360  21.9476470
  52.7664600  49.3126920  21.1276810  42.4818880  50.7897710  12.9695360
  43.2747490  51.0786540  12.5177150  41.9623230  50.3589880  12.2907840
  51.5349050  50.0167840  14.3932100  51.2490560  49.6032980  13.5786280
  51.3368600  50.9455550  14.2732620  46.2399010  45.0721150  13.4379700
  45.6909110  45.5190450  14.0822440  46.8618270  44.5670400  13.9617370
  44.4201770  43.0549680  12.5822100  44.9407430  42.3398700  12.2163250
  45.0670170  43.6935550  12.8822610  43.3235290  35.5344230  25.2540660
  42.8752590  35.5568490  24.4086210  42.6900490  35.1363250  25.8510960
  40.8033030  40.1045300  12.2803160  40.6022090  39.2412660  12.6416500
  40.6325080  40.0178660  11.3424760  48.2821340  34.9153530  14.8090040
  48.5623630  34.0721430  15.1649460  47.5087070  35.1476640  15.3228790
  39.6015830  37.2045920  12.2681040  39.9041730  37.2113350  11.3600190
  40.3410420  36.8543780  12.7648700  42.8200760  36.1480540  13.2537240
  42.4722760  35.4704530  12.6739690  43.0213530  35.6870050  14.0680630
  44.9849800  51.1361290  14.8723840  45.8800590  51.4746260  14.8942600
  45.0167430  50.4140700  14.2448120  38.6245960  46.5088340  13.1010840
  39.0620830  47.0518010  13.7568420  39.1093690  45.6835290  13.1107180
  53.2045600  47.4082780  12.9159750  52.3738560  47.4759430  13.3866980
  53.3817430  48.2986900  12.6126610  52.6602060  44.1530260  15.4193950
  53.4220970  44.7226910  15.5253640  52.6756430  43.5857460  16.1902260
  53.6662030  45.0080360  20.2635880  54.0370860  44.2247680  19.8571850
  54.3063960  45.6969460  20.0853180  52.7121230  44.4464630  12.5766470
  52.9870070  45.3543510  12.4485690  52.5231970  44.3827160  13.5128460
  49.1096840  37.4709480  13.8720100  49.5281720  37.2840460  13.0316760
  48.8032900  36.6188530  14.1823030  52.6086570  42.3833620  17.5695900
  52.2330170  41.6161550  17.1377190  51.8789690  42.7656320  18.0570830
  51.9986190  41.5305140  27.2035420  51.7672280  41.3017890  26.3033370
  52.2590740  42.4504690  27.1580310  50.4374260  36.7561570  29.9815120
  51.3144440  36.7644970  30.3649120  50.4495100  36.0192410  29.3707470
  51.8837530  40.6091110  20.8703140  52.4075010  40.1153760  20.2393310
  52.4696950  40.7441470  21.6150710  52.0627250  40.6930980  24.3922690
  51.1129960  40.6594520  24.5067680  52.2440260  41.6031090  24.1572460
  37.9171690  38.9432660  13.5021320  38.6263390  38.5215880  13.0168600
  37.2011630  39.0107890  12.8704670  37.5645850  34.9971990  12.5423970
  38.2873980  35.5380930  12.8605190  37.8370370  34.7235410  11.6665510
  51.3737500  39.8664460  16.8095550  51.8696620  39.6335330  17.5944430
  51.1753570  39.0276300  16.3933190  52.8024660  38.5025410  19.3433230
  52.6923940  38.3481450  20.2815500  53.5632250  37.9746350  19.1008640
  51.1490380  34.4419540  25.8016230  51.7862600  35.0553680  26.1675420
  51.2965270  34.4780200  24.8565460  53.6914930  36.3333330  12.5839370
  54.6164240  36.2014510  12.3757660  53.6690720  36.4126150  13.5375820
  53.7653420  37.1043990  15.2096080  52.9704920  37.0389110  15.7388990
  53.9696700  38.0394630  15.1981430  50.7071840  51.1435540  19.2034470
  51.3030910  50.8220110  18.5268890  50.9649990  50.6707360  19.9947740
  53.5744600  51.1507420  25.7545460  53.0802880  51.5476290  25.0372590
  52.9657890  50.5256630  26.1482740  47.8977460  33.8147930  24.6752910
  47.0237300  34.1483040  24.4725840  47.7888210  33.3421110  25.5004780
  48.8049440  36.0218800  26.0594630  48.4762800  35.2070560  25.6796360
  49.7531740  35.9788610  25.9360320  51.2584050  51.7930840  23.0332200
  50.7987020  52.5446650  22.6590220  50.6296510  51.0737310  22.9747000
  45.6452280  34.7317770  23.6145820  44.8624070  35.2063270  23.8942580
  45.3515210  33.8272600  23.5059000  50.1973350  35.4340870  21.6594910
  50.6381440  35.3785970  20.8116510  49.9280940  36.3498880  21.7305090
  52.0611920  35.0656110  19.6703730  52.0000320  34.1217330  19.5234750
  52.8403950  35.1736200  20.2157190  36.9892690  35.0365250  16.1359540
  37.7472050  35.1494130  15.5623570  36.5269860  35.8734450  16.0902970
  43.5306500  37.1504520  19.1261850  42.7181010  36.7761410  18.7857730
  44.0348140  36.3949600  19.4283040  48.0331480  33.8146970  20.3644920
  48.6360850  34.3867180  20.8393440  47.2924470  34.3786410  20.1418820
  51.1766080  34.2168530  15.6385200  51.3716710  35.1151980  15.9052630
  50.3895950  33.9855610  16.1318150  37.9727370  49.8981700  16.0777820
  37.4474990  50.2789730  15.3739780  37.8971950  50.5232470  16.7987530
  39.3617840  35.5629300  14.6761510  39.8910600  34.7759100  14.5469460
  39.9946160  36.2420490  14.9097040  41.5555680  35.3004440  17.7306900
  40.9258420  34.5991750  17.8977030  41.0160820  36.0608570  17.5140060
  52.7292690  51.4569240  17.3991760  52.9044880  50.7706980  16.7552680
  52.0314260  51.9816290  17.0068430  40.5720340  51.8464080  14.9527070
  41.3039160  51.5623360  14.4050960  40.8314010  51.6077360  15.8426450
  45.3202890  43.7913490   2.9883870  44.5444990  43.3113930   3.2782440
  45.9715820  43.1119140   2.8140030  39.3368720  44.1033300   3.8659630
  38.5053600  43.8482010   4.2656140  39.9449700  44.1744070   4.6017550
  49.3410320  48.1973680   1.7683000  48.8791850  47.4260920   2.0970170
  50.1535870  48.2239750   2.2735450  39.3169980  48.1373390   4.0617650
  39.6198020  47.2471130   3.8827870  40.0613570  48.6943610   3.8339900
  35.7093680  41.6640840   3.5341720  36.2809790  40.8963040   3.5345360
  35.7095220  41.9629600   2.6248330  44.7611880  46.4670680   2.9954030
  44.6920160  45.5260620   2.8343160  45.5231740  46.5572090   3.5676600
  36.9518550  37.0725200   5.3210650  36.7721390  36.1750950   5.6013410
  36.5498630  37.6197070   5.9957600  45.7917050  39.2741060   3.2222960
  46.1681870  38.4012940   3.1096630  45.6936560  39.6099760   2.3313400
  37.5705220  39.5685700   3.9292990  38.2515330  39.8324070   4.5480390
  37.2553270  38.7286570   4.2631000  41.7629790  40.6153060   3.0165580
  42.2708010  41.1134030   3.6570600  42.2943030  39.8388260   2.8404940
  53.8640720  38.7858250   6.7194930  53.1592890  39.1739960   6.2010040
  54.1298640  39.4808540   7.3215860  40.0465890  35.2551620   7.2829000
  40.0484330  35.7724010   6.4774900  39.2170200  34.7781800   7.2598930
  41.2968740  44.8946800   5.4602500  40.9638120  45.5215720   6.1023570
  41.4735420  45.4208680   4.6804170  49.8102650  38.7091880   2.9278840
  49.1058220  38.9976770   3.5081950  50.1714810  39.5191990   2.5678400
  39.7281220  36.9661580   5.2899450  40.0698030  37.8103630   4.9953320
  38.7897030  37.1145320   5.4064790  40.5087840  46.8627600   7.2751680
  41.1261840  47.5378680   6.9936130  39.6480960  47.2715580   7.1839180
  51.4265430  48.3267010   5.1906320  50.7428950  48.9966120   5.1822990
  51.9659720  48.5247660   4.4251180  52.8789570  38.1546670   3.3188050
  51.9314480  38.1885650   3.4503480  53.2039560  38.9685620   3.7037410
  48.9624170  50.1711140   3.9051500  48.9751330  49.7673430   3.0373760
  48.4099390  50.9458430   3.8012930  48.3609610  45.0740980   5.2334110
  48.7778400  44.8601090   4.3987570  49.0849430  45.3313770   5.8042730
  52.3071710  43.4728200   5.3250350  51.4790340  43.5421290   4.8500480
  52.9022190  44.0582510   4.8566180  49.2713720  40.2597520   6.2705220
  48.8584900  41.0851230   6.5245210  48.5389670  39.6742560   6.0781580
  41.8728210  46.7324980   3.2963100  41.5756500  46.1270450   2.6170880
  42.8228030  46.7702290   3.1852460  40.1175130  39.8200630   4.9122930
  40.6689720  39.9295970   4.1376180  40.6318640  40.1938230   5.6278160
  49.9613820  50.3056850   6.9586200  49.4844380  51.1129040   6.7658810
  49.2775610  49.6535180   7.1112410  40.9646640  46.4706670   9.9470900
  40.0675170  46.6946640  10.1944300  40.9899510  46.5941610   8.9982300
  39.7917860  43.3419990   8.5228270  39.6525630  44.2142790   8.8915670
  38.9099220  42.9992800   8.3776210  41.5898210  49.2841690  10.7313420
  41.5613640  49.6884640   9.8641850  41.4263180  48.3552050  10.5685020
  53.5413030  50.0668790  12.0277590  54.0172750  50.5451680  12.7066670
  54.1620190  49.9986280  11.3023090  35.7436510  45.1117540   4.4399180
  35.8216930  45.2466310   3.4954900  36.3578190  44.4033430   4.6327300
  52.9446280  47.2581640   9.1877600  53.0709340  47.0193520   8.2694780
  52.9867660  46.4266180   9.6599680  46.8063020  50.9609640   7.7572410
  47.3207690  50.8717650   8.5594840  45.9632100  51.3069340   8.0500320
  52.7970290  39.3114100  10.1527340  52.1814560  39.8193770   9.6242800
  52.4766710  38.4112430  10.0953280  35.7996030  46.1531710   6.9793640
  35.9627070  45.6837070   6.1613010  36.2648480  45.6455270   7.6442480
  40.5714800  35.2837470   2.0154210  40.1282950  36.0647010   1.6838730
  41.1299790  35.6067360   2.7225150  44.8584610  38.1505990   7.6189530
  44.3963980  38.3589010   8.4309470  44.4562720  37.3365340   7.3160200
  49.8589120  39.3714940   8.7486190  49.0082710  39.0720690   9.0695260
  49.6990910  39.6156950   7.8370010  46.9538830  40.8716690  10.8484980
  47.2792240  40.0380440  10.5087210  47.7419160  41.3945210  10.9963310
  42.6090700  35.8284800   3.8743810  42.9063030  36.7347630   3.7935830
  43.1576260  35.3403580   3.2603380  42.8028230  41.3056620  10.4095730
  42.7071830  40.3651350  10.2596130  43.6460210  41.5271690  10.0143800
  37.9338770  37.7170290   8.5629510  37.5402160  38.5645500   8.7702290
  37.2457170  37.0796660   8.7538150  44.5083820  37.8005260  11.6326250
  43.8182140  37.6077460  12.2672340  45.2516120  38.0839900  12.1650550
  35.2355820  35.6398750   2.5959590  34.9468870  36.2101610   3.3084570
  35.9801580  35.1603200   2.9590820  46.7846790  41.6403700   4.4680170
  46.0527910  42.1490510   4.8170270  46.3871130  40.8233680   4.1668950
  43.2224180  38.3157900   2.8732660  43.2260240  37.8747850   2.0237200
  44.1175300  38.6375230   2.9804480  47.2472700  37.0937380   3.8803110
  47.2645440  37.5446030   4.7244960  46.9988280  36.1943020   4.0936550
  50.6743450  34.5069560   9.7189490  50.9989220  33.7759220  10.2447470
  50.7099960  34.1883200   8.8170480  37.3735010  45.5283140   9.1389450
  36.9889800  44.8876810   9.7372410  37.6847200  46.2319260   9.7084180
  43.5232150  42.3759680   4.6198070  43.8902280  41.9018250   5.3659410
  43.3337210  43.2501250   4.9606410  41.3131520  41.4168320   6.9382280
  41.0088590  42.2960300   7.1632640  42.2677980  41.4768110   6.9739720
  50.6001290  44.6194670   3.3275520  51.3200410  45.1149960   2.9371630
  50.3983110  43.9412560   2.6829390  45.9820090  44.6903730   9.2144520
  45.9157400  43.7699400   8.9602110  45.3525230  44.7879170   9.9289160
  37.3695250  42.2571060   8.0853640  37.0110190  42.9224910   8.6726980
  37.0749810  41.4254610   8.4566260  40.5708370  42.7155300  10.9693190
  40.2708510  42.8612480  10.0721010  41.3419610  42.1560590  10.8766580
  45.9136820  47.5124300   8.9648320  45.9281360  46.5805260   8.7467230
  45.2061920  47.5984060   9.6038090  52.1248030  44.1531640   8.3116900
  51.3996220  44.7460420   8.1146290  52.6523490  44.1455180   7.5130270
  45.3470720  49.1541870   6.0588820  45.9912940  49.3601250   6.7362240
  45.7100160  48.3930270   5.6059670  46.6202800  47.1574220   4.7766270
  47.2625030  46.4567380   4.8898440  47.1452150  47.9372660   4.5963160
  48.3940420  47.9569120   7.9802330  48.7296660  48.5435810   8.6580250
  47.4740760  47.8261830   8.2100120  35.9443820  35.7464300   8.7625740
  35.2302340  35.9461220   9.3678350  36.3638860  34.9703870   9.1340540
  36.2316410  49.7344560   9.7492270  36.3407530  48.7939300   9.6087660
  35.5796970  49.9999310   9.1006000  44.2229000  48.0060450  11.1490390
  43.9025870  47.2869690  11.6936080  43.5487360  48.6815520  11.2226450
  47.4382600  38.2386610   6.5127190  47.8063420  37.4181820   6.8406760
  46.5780800  38.2988500   6.9282840  44.3984590  40.8926200   6.7365160
  44.8969840  41.3672020   7.4017010  44.5407540  39.9689720   6.9435190
  51.6051450  37.1094160   7.5793550  51.1025050  37.8499560   7.9187360
  52.4208110  37.4978160   7.2630340  51.8999040  49.5236190   2.7009170
  52.0246460  50.3467360   3.1732980  52.7664600  49.3126920   2.3533320
  39.3716570  51.6167400   2.3726300  40.1079050  51.0682860   2.6434870
  39.7557490  52.4823410   2.2332290  38.3774850  50.8013470  11.5611880
  39.1787580  51.1225520  11.9747280  37.8626670  50.4409050  12.2831790
  47.2139480  46.9093340  11.5087290  46.6077640  46.9324940  10.7683040
  46.9093590  46.1776380  12.0454540  48.6439850  50.6373630  10.1196700
  49.5961600  50.5531650  10.0696940  48.4968070  51.3015340  10.7930490
  36.0972660  43.2886930  10.5047930  36.6011680  42.7094210  11.0764160
  35.3580080  43.5727160  11.0424300  43.1510600  44.6957920  10.0383450
  42.3856270  45.2642920   9.9538120  43.3326560  44.4034130   9.1451680
  50.2933950  46.4263250  10.5958470  51.0343420  46.7639010  10.0925930
  49.5306630  46.5955310  10.0428240  38.1295740  41.4316520  11.3998000
  38.1701080  41.1330390  12.3083230  38.9841240  41.8324130  11.2405520
  40.0701550  40.0108620   9.3672490  39.5398010  39.5199570   8.7395830
  40.7389620  40.4392820   8.8330420  48.9679610  44.4778080   9.1313680
  49.3820630  44.6323160   9.9804100  48.0330610  44.6033300   9.2939460
  49.4401780  41.8174240  11.1352830  50.0222550  41.0626560  11.0473310
  49.6163550  42.3481680  10.3584310  40.5573850  36.9770990   9.4469780
  40.4630720  36.3591740   8.7220650  39.9771240  37.7037280   9.2199690
  43.3235290  35.5344230   6.4797170  42.8752590  35.5568490   5.6342720
  42.6900490  35.1363250   7.0767470  43.7294840  44.4298560   7.1009610
  44.1482950  45.2731290   6.9285850  42.8103470  44.5670600   6.8716390
  46.0658740  42.1614740   8.4847450  46.1854950  41.5655880   9.2242290
  46.9252740  42.1984430   8.0648750  48.4046640  42.7151930   7.0609960
  47.8781860  43.2394550   6.4575100  48.7477980  43.3479320   7.6919690
  41.5802260  50.7351570   8.2167340  41.0423350  51.4597630   7.8976040
  41.8336220  50.2581910   7.4264680  42.8327510  38.7036090   9.7423270
  43.4227200  38.3951940  10.4301090  42.0147750  38.2315840   9.8983170
  47.6520940  38.3201900   9.9756290  46.9636460  37.6583440   9.9106280
  48.3726960  37.8740170  10.4204750  44.4364470  51.9702780   8.4753990
  44.3623170  52.8737920   8.7826360  43.5343310  51.6514680   8.4476060
  36.3281970  50.1647960   4.5169240  35.8912960  50.3448760   5.3493390
  36.8959650  50.9222580   4.3750960  51.9644150  49.6664960   8.8046550
  51.3646140  49.7257520   8.0610470  52.0938050  48.7269940   8.9343400
  50.6495790  46.3916940   6.9022710  49.8355630  46.8214100   7.1648500
  51.0569990  47.0035350   6.2891760  37.1982330  43.0620760   5.4161460
  37.5655370  42.9748160   6.2957480  36.6293150  42.2987310   5.3168320
  51.9986190  41.5305140   8.4291930  51.7672280  41.3017890   7.5289880
  52.2590740  42.4504690   8.3836820  36.7498330  39.9729850   9.3219880
  35.8554380  39.9396610   9.6613590  37.2895880  40.1716640  10.0871130
  50.4374260  36.7561570  11.2071630  51.3144440  36.7644970  11.5905630
  50.4495100  36.0192410  10.5963980  52.0627250  40.6930980   5.6179200
  51.1129960  40.6594520   5.7324190  52.2440260  41.6031090   5.3828970
  37.2538040  34.2478180   3.6703100  37.9014230  33.6975560   3.2298260
  37.6739880  34.5021330   4.4918910  51.1490380  34.4419540   7.0272740
  51.7862600  35.0553680   7.3931930  51.2965270  34.4780200   6.0821970
  37.0070040  34.4033850   6.4128420  36.6584860  34.8597670   7.1786600
  36.6757740  33.5090980   6.4950850  38.6134410  47.5753450  10.5781610
  38.5704040  47.2046360  11.4596070  38.7445420  48.5131020  10.7183430
  42.3140440  49.1313040   6.1791330  42.0731800  49.3987600   5.2921850
  43.2543080  49.3018770   6.2342190  44.5194860  35.5945730   9.9347840
  44.4583750  36.1867560  10.6843250  45.4595240  35.4871690   9.7898100
  47.1569420  35.2515790   9.5740130  47.7709830  35.5695080   8.9121210
  47.7018980  34.7664380  10.1935990  53.5744600  51.1507420   6.9801970
  53.0802880  51.5476290   6.2629100  52.9657890  50.5256630   7.3739250
  37.6790680  33.9310050   9.6879190  38.2273670  33.7498100   8.9245300
  37.7445990  33.1404160  10.2235500  38.4522440  50.5215700   7.6979390
  37.8582760  50.3900400   8.4369430  38.4446280  49.6853840   7.2321490
  47.8977460  33.8147930   5.9009420  47.0237300  34.1483040   5.6982350
  47.7888210  33.3421110   6.7261290  48.8049440  36.0218800   7.2851140
  48.4762800  35.2070560   6.9052870  49.7531740  35.9788610   7.1616830
  51.2584050  51.7930840   4.2588710  50.7987020  52.5446650   3.8846730
  50.6296510  51.0737310   4.2003510  38.0834670  47.8874080   6.6487430
  37.3568730  47.2679370   6.5813380  38.1443820  48.2814690   5.7785510
  41.6879770  50.1019080   3.4336840  42.2044790  49.4906440   2.9085100
  42.3377150  50.6047860   3.9247850  44.4275270  50.9927570   4.2605820
  44.7153080  50.7381870   3.3838830  44.9398490  50.4404930   4.8511390
  45.6452280  34.7317770   4.8402330  44.8624070  35.2063270   5.1199090
  45.3515210  33.8272600   4.7315510  50.1973350  35.4340870   2.8851420
  50.6381440  35.3785970   2.0373020  49.9280940  36.3498880   2.9561600
  44.4947630  51.9143670  11.6274020  45.4214940  51.6787940  11.6709980
  44.4798060  52.7415670  11.1460050  41.6811240  34.5788420  11.3915900
  41.3995510  35.0822020  10.6276720  42.0630940  33.7810170  11.0258030
  48.2826700  33.9942000  11.9696370  48.1692150  34.3136610  12.8647890
  49.0996440  34.3954510  11.6733650  51.0625190  51.1413530  11.4515060
  51.8550510  50.6462760  11.2441020  51.3558340  51.8203670  12.0590670
  47.1884850  23.2390980  76.2048560  47.1078900  22.3245590  75.9340270
  46.7749270  23.7358050  75.4988270  45.3202890  25.0170000  78.0857830
  44.5444990  24.5370440  78.3756400  45.9715820  24.3375650  77.9113990
  49.3410320  29.4230190  76.8656960  48.8791850  28.6517430  77.1944130
  50.1535870  29.4496260  77.3709410  37.7460670  20.2891700  72.7475980
  36.8577370  20.6307670  72.6455860  38.0301860  20.0892020  71.8556810
  35.7093680  22.8897350  78.6315680  36.2809790  22.1219550  78.6319320
  35.7095220  23.1886110  77.7222290  45.5673630  31.7088200  76.4860950
  44.9485070  32.1645700  75.9155390  46.4225410  31.8639660  76.0850650
  44.7611880  27.6927190  78.0927990  44.6920160  26.7517130  77.9317120
  45.5231740  27.7828600  78.6650560  45.7917050  20.4997570  78.3196920
  46.1681870  19.6269450  78.2070590  45.6936560  20.8356270  77.4287360
  39.9222060  18.8723200  73.7814360  40.0288810  19.7726930  74.0883120
  39.0114420  18.8241170  73.4909010  49.5741170  17.9948010  75.2525260
  50.3950790  17.5044580  75.2950740  49.6075250  18.5845670  76.0057100
  41.7629790  21.8409570  78.1139540  42.2708010  22.3390540  78.7544560
  42.2943030  21.0644770  77.9378900  46.4336980  26.5927440  73.8792860
  45.8154250  27.0576890  73.3155580  46.9460230  27.2854920  74.2962370
  49.8102650  19.9348390  78.0252800  49.1058220  20.2233280  78.6055910
  50.1714810  20.7448500  77.6652360  35.8020180  27.2783970  71.2532490
  35.4248160  27.7671070  70.5217390  36.0593250  27.9509250  71.8839020
  52.8789570  19.3803180  78.4162010  51.9314480  19.4142160  78.5477440
  53.2039560  20.1942130  78.8011370  43.4109110  15.6800360  76.7118000
  43.7184090  15.1247250  75.9953500  42.4809810  15.8144820  76.5290990
  50.2569590  28.1183870  74.0915630  50.1465920  27.1758200  74.2165050
  50.2537840  28.4799510  74.9778390  45.7989870  23.7449190  73.4478120
  44.8719150  23.6786570  73.6766590  45.9514690  24.6829320  73.3333360
  45.7858950  20.0166190  70.4445280  44.8462620  20.1780150  70.5297740
  46.1042210  20.7351870  69.8981270  49.8287160  25.3069490  73.9513370
  49.2099580  24.9689040  73.3039670  49.8111610  24.6629250  74.6592560
  41.4046510  24.2713930  76.2297850  41.0003510  23.5591180  75.7343750
  41.4909630  23.9267170  77.1185890  41.8728210  27.9581490  78.3937060
  41.5756500  27.3526960  77.7144840  42.8228030  27.9958800  78.2826420
  48.0051860  24.5456300  70.9586120  48.4445140  23.7078730  70.8123940
  48.7180280  25.1785700  71.0450260  46.1147240  29.4852370  74.9267360
  46.5543150  30.2276700  74.5122750  46.0534130  29.7278940  75.8506320
  51.5869000  15.7999110  69.2727160  51.2741660  15.8925940  70.1726230
  52.3481470  16.3780140  69.2224590  38.1051140  23.1658910  73.7304500
  37.9848740  23.8921000  73.1185770  37.7952030  22.3961820  73.2532410
  36.9884140  28.0374240  75.9479320  36.5812220  28.1788830  75.0932920
  37.8797150  27.7534400  75.7450530  48.7817420  32.4721490  72.2830370
  48.6218560  32.1824430  73.1812200  48.6164130  31.6961620  71.7475600
  41.2605800  32.2520020  74.0601990  41.0848280  31.3355560  73.8469790
  40.4061540  32.6107310  74.2999790  48.4843550  29.9809050  70.8428370
  47.7908710  29.9786340  70.1830650  49.2266410  29.5568370  70.4122540
  48.0493480  31.6071760  74.9176860  48.5050430  30.8261140  75.2315480
  48.3886000  32.3178580  75.4618040  40.5714800  16.5093980  77.1128170
  40.1282950  17.2903520  76.7812690  41.1299790  16.8323870  77.8199110
  43.6873620  16.1304680  71.9934000  43.0627800  16.1264550  72.7187310
  43.6003740  15.2635640  71.5969970  40.3629020  21.6327550  74.8409420
  40.1369940  21.4164720  75.7456040  39.5821550  22.0656010  74.4955390
  47.5926780  21.6390920  73.4400070  46.9935670  22.3626720  73.2563690
  48.1406390  21.5767700  72.6576520  46.1991650  20.2754460  75.4703350
  46.5921220  20.5926660  74.6572040  46.5608500  19.3966340  75.5847870
  35.2355820  16.8655260  77.6933550  34.9468870  17.4358120  78.4058530
  35.9801580  16.3859710  78.0564780  35.4226050  20.8075380  68.9036270
  35.3400720  21.7506140  69.0451260  35.0709110  20.6650290  68.0248620
  43.2224180  19.5414410  77.9706620  43.2260240  19.1004360  77.1211160
  44.1175300  19.8631740  78.0778440  39.0726560  19.4240900  76.9300830
  38.7326610  19.9016130  77.6867880  38.3103880  18.9706020  76.5701930
  43.2844330  20.5426490  70.9613380  43.4057150  20.5012970  71.9099200
  42.8992840  21.4050640  70.8060110  42.2965830  22.8527630  70.3596680
  41.7282730  22.4045880  69.7332590  43.0054830  23.2120410  69.8261830
  36.3872640  18.3459880  75.8465500  36.1019560  17.9815550  76.6844120
  36.3251500  17.6140340  75.2328640  39.8413310  26.8485820  72.6323090
  39.0675570  26.3083440  72.4721810  40.5707940  26.3292430  72.2940850
  50.6001290  25.8451180  78.4249480  51.3200410  26.3406470  78.0345590
  50.3983110  25.1669070  77.7803350  46.0611230  17.2389140  72.5678870
  45.2475840  16.7402310  72.4924180  45.8673180  18.0787390  72.1515220
  48.7759620  21.6108790  70.8641030  49.6639240  21.9226020  70.6892370
  48.7464710  20.7381040  70.4721610  39.8850710  26.5166200  76.2701900
  40.4029380  25.7134460  76.2158790  39.4334730  26.4545340  77.1118730
  44.7720210  27.7832480  71.5429200  45.1135910  28.5274710  71.0472520
  43.9432920  28.0963600  71.9054030  51.0473890  22.9220630  70.3320890
  50.9637610  23.3534850  69.4817330  51.7668080  23.3818980  70.7647710
  52.0761140  29.7762890  73.0603020  51.4337300  29.1218510  73.3346740
  51.6891800  30.1817980  72.2843690  47.6547620  27.1048320  76.9074710
  48.0071440  26.5076450  76.2476080  46.7709950  26.7792550  77.0782960
  43.7410900  27.8646010  74.3145120  44.4282030  28.4115220  74.6952710
  42.9543320  28.4086740  74.3494730  35.8803300  23.4818830  69.8062200
  36.7498150  23.7643630  70.0898120  35.3893620  24.2954700  69.6911010
  43.0438110  24.8692040  73.9270480  43.5000890  25.6797290  74.1530670
  42.6926320  24.5515180  74.7588970  38.9449890  15.2129690  74.3993000
  38.8164520  15.2047590  75.3477920  38.1211910  15.5512780  74.0484010
  50.4658520  28.6679350  69.5979370  50.2396100  27.9509790  70.1904010
  50.0754720  28.4191790  68.7601120  36.2474550  32.6946210  70.3723830
  36.6072190  33.2935550  69.7181100  36.1066890  33.2406100  71.1458860
  50.0474770  26.5851290  71.2593530  49.7596470  27.0463980  72.0471410
  50.8426940  26.1249060  71.5277750  42.2643170  30.0777410  71.1897500
  42.2553270  30.8107100  70.5742010  41.3441530  29.8308990  71.2824460
  37.8649810  25.2992300  71.9344260  37.2577760  26.0391200  71.9439560
  38.3399160  25.3891660  71.1082460  50.8044630  18.4200060  72.4188710
  50.1757790  18.5245730  71.7046940  50.3096550  18.6396840  73.2082590
  45.2502770  30.1405650  69.8522690  45.3514750  29.9369640  68.9224670
  44.3504510  29.8863930  70.0570470  42.7728660  20.6986010  73.8346590
  42.0644810  21.1672350  74.2760200  43.0573140  20.0408020  74.4691780
  46.8044090  17.4236670  75.2742380  46.6811870  17.4422800  74.3251890
  47.7528650  17.4715610  75.3940780  43.8920880  32.6591970  74.5470360
  44.1462380  32.6213360  73.6249730  42.9433360  32.5325300  74.5398610
  40.9763680  19.0071090  71.2097300  41.8254210  19.4441240  71.1437490
  40.6094950  19.3191350  72.0369360  49.8973460  23.5783850  76.1228870
  48.9563600  23.5934080  76.2976560  50.2117530  22.7919810  76.5689170
  39.8755100  25.2603450  69.6832830  40.6418370  25.1484810  70.2458260
  39.9529790  24.5641420  69.0309600  38.5701860  22.6928520  70.3665720
  38.6505450  21.7456030  70.4783120  39.4621610  23.0235400  70.4726380
  51.8999040  30.7492700  77.7983130  52.0246460  31.5723870  78.2706940
  52.7664600  30.5383430  77.4507280  39.3716570  32.8423910  77.4700260
  40.1079050  32.2939370  77.7408830  39.7557490  33.7079920  77.3306250
  36.2562050  28.9097480  73.3441770  35.3301830  29.1518620  73.3347180
  36.7218480  29.7371740  73.2226520  42.4818880  32.0154220  69.2925830
  43.2747490  32.3043050  68.8407620  41.9623230  31.5846390  68.6138310
  51.5349050  31.2424350  70.7162570  51.2490560  30.8289490  69.9016750
  51.3368600  32.1712060  70.5963090  42.9996280  27.2357630  69.1568180
  42.8946920  26.6209980  69.8829560  42.8320500  26.7123520  68.3731190
  46.2399010  26.2977660  69.7610170  45.6909110  26.7446960  70.4052910
  46.8618270  25.7926910  70.2847840  41.9074130  25.2568580  71.6575470
  42.3290550  25.0908450  72.5006860  42.0324970  24.4468810  71.1630610
  44.4201770  24.2806190  68.9052570  44.9407430  23.5655210  68.5393720
  45.0670170  24.9192060  69.2053080  40.8033030  21.3301810  68.6033630
  40.6022090  20.4669170  68.9646970  40.6325080  21.2435170  67.6655230
  48.2821340  16.1410040  71.1320510  48.5623630  15.2977940  71.4879930
  47.5087070  16.3733150  71.6459260  39.6015830  18.4302430  68.5911510
  39.9041730  18.4369860  67.6830660  40.3410420  18.0800290  69.0879170
  42.8200760  17.3737050  69.5767710  42.4722760  16.6961040  68.9970160
  43.0213530  16.9126560  70.3911100  44.9849800  32.3617800  71.1954310
  45.8800590  32.7002770  71.2173070  45.0167430  31.6397210  70.5678590
  38.6245960  27.7344850  69.4241310  39.0620830  28.2774520  70.0798890
  39.1093690  26.9091800  69.4337650  35.8391760  30.5233880  76.8761570
  36.1694770  29.6554940  76.6440210  36.2682760  30.7292400  77.7066530
  40.4353680  28.8542890  74.5363540  40.1349220  28.7307860  75.4367450
  40.3291170  27.9951480  74.1279270  53.2045600  28.6339290  69.2390220
  52.3738560  28.7015940  69.7097450  53.3817430  29.5243410  68.9357080
  52.6602060  25.3786770  71.7424420  53.4220970  25.9483420  71.8484110
  52.6756430  24.8113970  72.5132730  36.1606400  23.9024700  75.9732080
  35.5055240  23.6336340  75.3291780  36.9984350  23.7929180  75.5234060
  53.6662030  26.2336870  76.5866350  54.0370860  25.4504190  76.1802320
  54.3063960  26.9225970  76.4083650  52.7121230  25.6721140  68.8996940
  52.9870070  26.5800020  68.7716160  52.5231970  25.6083670  69.8358930
  49.1096840  18.6965990  70.1950570  49.5281720  18.5096970  69.3547230
  48.8032900  17.8445040  70.5053500  52.6086570  23.6090130  73.8926370
  52.2330170  22.8418060  73.4607660  51.8789690  23.9912830  74.3801300
  35.3744480  21.1123630  71.9157410  34.4708560  21.3753830  71.7409070
  35.8585100  21.3834800  71.1357370  51.8837530  21.8347620  77.1933610
  52.4075010  21.3410270  76.5623780  52.4696950  21.9697980  77.9381180
  37.9171690  20.1689170  69.8251790  38.6263390  19.7472390  69.3399070
  37.2011630  20.2364400  69.1935140  37.5645850  16.2228500  68.8654440
  38.2873980  16.7637440  69.1835660  37.8370370  15.9491920  67.9895980
  51.3737500  21.0920970  73.1326020  51.8696620  20.8591840  73.9174900
  51.1753570  20.2532810  72.7163660  52.8024660  19.7281920  75.6663700
  52.6923940  19.5737960  76.6045970  53.5632250  19.2002860  75.4239110
  53.6914930  17.5589840  68.9069840  54.6164240  17.4271020  68.6988130
  53.6690720  17.6382660  69.8606290  53.7653420  18.3300500  71.5326550
  52.9704920  18.2645620  72.0619460  53.9696700  19.2651140  71.5211900
  50.7071840  32.3692050  75.5264940  51.3030910  32.0476620  74.8499360
  50.9649990  31.8963870  76.3178210  50.1973350  16.6597380  77.9825380
  50.6381440  16.6042480  77.1346980  49.9280940  17.5755390  78.0535560
  52.0611920  16.2912620  75.9934200  52.0000320  15.3473840  75.8465220
  52.8403950  16.3992710  76.5387660  36.3664670  32.4304980  74.9558150
  36.1986710  31.7975660  75.6540040  35.4999180  32.6364380  74.6052340
  36.9892690  16.2621760  72.4590010  37.7472050  16.3750640  71.8854040
  36.5269860  17.0990960  72.4133440  43.5306500  18.3761030  75.4492320
  42.7181010  18.0017920  75.1088200  44.0348140  17.6206110  75.7513510
  48.0331480  15.0403480  76.6875390  48.6360850  15.6123690  77.1623910
  47.2924470  15.6042920  76.4649290  51.1766080  15.4425040  71.9615670
  51.3716710  16.3408490  72.2283100  50.3895950  15.2112120  72.4548620
  37.9727370  31.1238210  72.4008290  37.4474990  31.5046240  71.6970250
  37.8971950  31.7488980  73.1218000  39.3617840  16.7885810  70.9991980
  39.8910600  16.0015610  70.8699930  39.9946160  17.4677000  71.2327510
  41.5555680  16.5260950  74.0537370  40.9258420  15.8248260  74.2207500
  41.0160820  17.2865080  73.8370530  52.7292690  32.6825750  73.7222230
  52.9044880  31.9963490  73.0783150  52.0314260  33.2072800  73.3298900
  40.5720340  33.0720590  71.2757540  41.3039160  32.7879870  70.7281430
  40.8314010  32.8333870  72.1656920  39.7335130  29.1885320  71.2803870
  39.1044010  29.6570420  71.8289700  39.8482960  28.3434540  71.7150060
  35.7093680  22.8897350  59.8572190  36.2809790  22.1219550  59.8575830
  35.7095220  23.1886110  58.9478800  36.9518550  18.2981710  61.6441120
  36.7721390  17.4007460  61.9243880  36.5498630  18.8453580  62.3188070
  37.5705220  20.7942210  60.2523460  38.2515330  21.0580580  60.8710860
  37.2553270  19.9543080  60.5861470  53.8640720  20.0114760  63.0425400
  53.1592890  20.3996470  62.5240510  54.1298640  20.7065050  63.6446330
  40.0465890  16.4808130  63.6059470  40.0484330  16.9980520  62.8005370
  39.2170200  16.0038310  63.5829400  39.7281220  18.1918090  61.6129920
  40.0698030  19.0360140  61.3183790  38.7897030  18.3401830  61.7295260
  43.4109110  15.6800360  57.9374510  43.7184090  15.1247250  57.2210010
  42.4809810  15.8144820  57.7547500  40.1175130  21.0457140  61.2353400
  40.6689720  21.1552480  60.4606650  40.6318640  21.4194740  61.9508630
  40.9646640  27.6963180  66.2701370  40.0675170  27.9203150  66.5174770
  40.9899510  27.8198120  65.3212770  39.7917860  24.5676500  64.8458740
  39.6525630  25.4399300  65.2146140  38.9099220  24.2249310  64.7006680
  41.5898210  30.5098200  67.0543890  41.5613640  30.9141150  66.1872320
  41.4263180  29.5808560  66.8915490  53.5413030  31.2925300  68.3508060
  54.0172750  31.7708190  69.0297140  54.1620190  31.2242790  67.6253560
  35.7436510  26.3374050  60.7629650  35.8216930  26.4722820  59.8185370
  36.3578190  25.6289940  60.9557770  52.7970290  20.5370610  66.4757810
  52.1814560  21.0450280  65.9473270  52.4766710  19.6368940  66.4183750
  35.7996030  27.3788220  63.3024110  35.9627070  26.9093580  62.4843480
  36.2648480  26.8711780  63.9672950  40.5714800  16.5093980  58.3384680
  40.1282950  17.2903520  58.0069200  41.1299790  16.8323870  59.0455620
  44.8584610  19.3762500  63.9420000  44.3963980  19.5845520  64.7539940
  44.4562720  18.5621850  63.6390670  49.8589120  20.5971450  65.0716660
  49.0082710  20.2977200  65.3925730  49.6990910  20.8413460  64.1600480
  46.9538830  22.0973200  67.1715450  47.2792240  21.2636950  66.8317680
  47.7419160  22.6201720  67.3193780  42.6090700  17.0541310  60.1974280
  42.9063030  17.9604140  60.1166300  43.1576260  16.5660090  59.5833850
  42.8028230  22.5313130  66.7326200  42.7071830  21.5907860  66.5826600
  43.6460210  22.7528200  66.3374270  37.9338770  18.9426800  64.8859980
  37.5402160  19.7902010  65.0932760  37.2457170  18.3053170  65.0768620
  44.5083820  19.0261770  67.9556720  43.8182140  18.8333970  68.5902810
  45.2516120  19.3096410  68.4881020  35.2355820  16.8655260  58.9190060
  34.9468870  17.4358120  59.6315040  35.9801580  16.3859710  59.2821290
  43.2224180  19.5414410  59.1963130  43.2260240  19.1004360  58.3467670
  44.1175300  19.8631740  59.3034950  50.6743450  15.7326070  66.0419960
  50.9989220  15.0015730  66.5677940  50.7099960  15.4139710  65.1400950
  37.3735010  26.7539650  65.4619920  36.9889800  26.1133320  66.0602880
  37.6847200  27.4575770  66.0314650  36.3872640  18.3459880  57.0722010
  36.1019560  17.9815550  57.9100630  36.3251500  17.6140340  56.4585150
  41.3131520  22.6424830  63.2612750  41.0088590  23.5216810  63.4863110
  42.2677980  22.7024620  63.2970190  45.9820090  25.9160240  65.5374990
  45.9157400  24.9955910  65.2832580  45.3525230  26.0135680  66.2519630
  37.3695250  23.4827570  64.4084110  37.0110190  24.1481420  64.9957450
  37.0749810  22.6511120  64.7796730  40.5708370  23.9411810  67.2923660
  40.2708510  24.0868990  66.3951480  41.3419610  23.3817100  67.1997050
  38.9449890  15.2129690  55.6249510  38.8164520  15.2047590  56.5734430
  38.1211910  15.5512780  55.2740520  35.9443820  16.9720810  65.0856210
  35.2302340  17.1717730  65.6908820  36.3638860  16.1960380  65.4571010
  36.2316410  30.9601070  66.0722740  36.3407530  30.0195810  65.9318130
  35.5796970  31.2255820  65.4236470  44.2229000  29.2316960  67.4720860
  43.9025870  28.5126200  68.0166550  43.5487360  29.9072030  67.5456920
  51.6051450  18.3350670  63.9024020  51.1025050  19.0756070  64.2417830
  52.4208110  18.7234670  63.5860810  38.3774850  32.0269980  67.8842350
  39.1787580  32.3482030  68.2977750  37.8626670  31.6665560  68.6062260
  47.2139480  28.1349850  67.8317760  46.6077640  28.1581450  67.0913510
  46.9093590  27.4032890  68.3685010  48.6439850  31.8630140  66.4427170
  49.5961600  31.7788160  66.3927410  48.4968070  32.5271850  67.1160960
  36.0972660  24.5143440  66.8278400  36.6011680  23.9350720  67.3994630
  35.3580080  24.7983670  67.3654770  43.1510600  25.9214430  66.3613920
  42.3856270  26.4899430  66.2768590  43.3326560  25.6290640  65.4682150
  38.1295740  22.6573030  67.7228470  38.1701080  22.3586900  68.6313700
  38.9841240  23.0580640  67.5635990  40.0701550  21.2365130  65.6902960
  39.5398010  20.7456080  65.0626300  40.7389620  21.6649330  65.1560890
  48.9679610  25.7034590  65.4544150  49.3820630  25.8579670  66.3034570
  48.0330610  25.8289810  65.6169930  49.4401780  23.0430750  67.4583300
  50.0222550  22.2883070  67.3703780  49.6163550  23.5738190  66.6814780
  40.5573850  18.2027500  65.7700250  40.4630720  17.5848250  65.0451120
  39.9771240  18.9293790  65.5430160  43.3235290  16.7600740  62.8027640
  42.8752590  16.7825000  61.9573190  42.6900490  16.3619760  63.3997940
  43.7294840  25.6555070  63.4240080  44.1482950  26.4987800  63.2516320
  42.8103470  25.7927110  63.1946860  41.5802260  31.9608080  64.5397810
  41.0423350  32.6854140  64.2206510  41.8336220  31.4838420  63.7495150
  42.8327510  19.9292600  66.0653740  43.4227200  19.6208450  66.7531560
  42.0147750  19.4572350  66.2213640  47.6520940  19.5458410  66.2986760
  46.9636460  18.8839950  66.2336750  48.3726960  19.0996680  66.7435220
  44.4364470  33.1959290  64.7984460  44.3623170  34.0994430  65.1056830
  43.5343310  32.8771190  64.7706530  37.1982330  24.2877270  61.7391930
  37.5655370  24.2004670  62.6187950  36.6293150  23.5243820  61.6398790
  51.9986190  22.7561650  64.7522400  51.7672280  22.5274400  63.8520350
  52.2590740  23.6761200  64.7067290  36.7498330  21.1986360  65.6450350
  35.8554380  21.1653120  65.9844060  37.2895880  21.3973150  66.4101600
  50.4374260  17.9818080  67.5302100  51.3144440  17.9901480  67.9136100
  50.4495100  17.2448920  66.9194450  37.2538040  15.4734690  59.9933570
  37.9014230  14.9232070  59.5528730  37.6739880  15.7277840  60.8149380
  51.1490380  15.6676050  63.3503210  51.7862600  16.2810190  63.7162400
  51.2965270  15.7036710  62.4052440  37.0070040  15.6290360  62.7358890
  36.6584860  16.0854180  63.5017070  36.6757740  14.7347490  62.8181320
  38.6134410  28.8009960  66.9012080  38.5704040  28.4302870  67.7826540
  38.7445420  29.7387530  67.0413900  44.5194860  16.8202240  66.2578310
  44.4583750  17.4124070  67.0073720  45.4595240  16.7128200  66.1128570
  47.1569420  16.4772300  65.8970600  47.7709830  16.7951590  65.2351680
  47.7018980  15.9920890  66.5166460  37.6790680  15.1566560  66.0109660
  38.2273670  14.9754610  65.2475770  37.7445990  14.3660670  66.5465970
  38.4522440  31.7472210  64.0209860  37.8582760  31.6156910  64.7599900
  38.4446280  30.9110350  63.5551960  47.8977460  15.0404440  62.2239890
  47.0237300  15.3739550  62.0212820  47.7888210  14.5677620  63.0491760
  48.8049440  17.2475310  63.6081610  48.4762800  16.4327070  63.2283340
  49.7531740  17.2045120  63.4847300  38.0834670  29.1130590  62.9717900
  37.3568730  28.4935880  62.9043850  38.1443820  29.5071200  62.1015980
  45.6452280  15.9574280  61.1632800  44.8624070  16.4319780  61.4429560
  45.3515210  15.0529110  61.0545980  36.9892690  16.2621760  53.6846520
  37.7472050  16.3750640  53.1110550  36.5269860  17.0990960  53.6389950
  44.4947630  33.1400180  67.9504490  45.4214940  32.9044450  67.9940450
  44.4798060  33.9672180  67.4690520  41.6811240  15.8044930  67.7146370
  41.3995510  16.3078530  66.9507190  42.0630940  15.0066680  67.3488500
  48.2826700  15.2198510  68.2926840  48.1692150  15.5393120  69.1878360
  49.0996440  15.6211020  67.9964120  51.0625190  32.3670040  67.7745530
  51.8550510  31.8719270  67.5671490  51.3558340  33.0460180  68.3821140
  37.7460670  20.2891700  35.1989000  36.8577370  20.6307670  35.0968880
  38.0301860  20.0892020  34.3069830  36.9518550  18.2981710  42.8697630
  36.7721390  17.4007460  43.1500390  36.5498630  18.8453580  43.5444580
  39.7281220  18.1918090  42.8386430  40.0698030  19.0360140  42.5440300
  38.7897030  18.3401830  42.9551770  43.4109110  15.6800360  39.1631020
  43.7184090  15.1247250  38.4466520  42.4809810  15.8144820  38.9804010
  51.5869000  15.7999110  31.7240180  51.2741660  15.8925940  32.6239250
  52.3481470  16.3780140  31.6737610  40.5714800  16.5093980  39.5641190
  40.1282950  17.2903520  39.2325710  41.1299790  16.8323870  40.2712130
  43.6873620  16.1304680  34.4447020  43.0627800  16.1264550  35.1700330
  43.6003740  15.2635640  34.0482990  35.2355820  16.8655260  40.1446570
  34.9468870  17.4358120  40.8571550  35.9801580  16.3859710  40.5077800
  35.4226050  20.8075380  31.3549290  35.3400720  21.7506140  31.4964280
  35.0709110  20.6650290  30.4761640  42.2965830  22.8527630  32.8109700
  41.7282730  22.4045880  32.1845610  43.0054830  23.2120410  32.2774850
  36.3872640  18.3459880  38.2978520  36.1019560  17.9815550  39.1357140
  36.3251500  17.6140340  37.6841660  35.8803300  23.4818830  32.2575220
  36.7498150  23.7643630  32.5411140  35.3893620  24.2954700  32.1424030
  38.9449890  15.2129690  36.8506020  38.8164520  15.2047590  37.7990940
  38.1211910  15.5512780  36.4997030  35.9443820  16.9720810  46.3112720
  35.2302340  17.1717730  46.9165330  36.3638860  16.1960380  46.6827520
  50.8044630  18.4200060  34.8701730  50.1757790  18.5245730  34.1559960
  50.3096550  18.6396840  35.6595610  46.8044090  17.4236670  37.7255400
  46.6811870  17.4422800  36.7764910  47.7528650  17.4715610  37.8453800
  40.9763680  19.0071090  33.6610320  41.8254210  19.4441240  33.5950510
  40.6094950  19.3191350  34.4882380  38.5701860  22.6928520  32.8178740
  38.6505450  21.7456030  32.9296140  39.4621610  23.0235400  32.9239400
  40.8033030  21.3301810  31.0546650  40.6022090  20.4669170  31.4159990
  40.6325080  21.2435170  30.1168250  48.2821340  16.1410040  33.5833530
  48.5623630  15.2977940  33.9392950  47.5087070  16.3733150  34.0972280
  39.6015830  18.4302430  31.0424530  39.9041730  18.4369860  30.1343680
  40.3410420  18.0800290  31.5392190  42.8200760  17.3737050  32.0280730
  42.4722760  16.6961040  31.4483180  43.0213530  16.9126560  32.8424120
  35.3744480  21.1123630  34.3670430  34.4708560  21.3753830  34.1922090
  35.8585100  21.3834800  33.5870390  37.9171690  20.1689170  32.2764810
  38.6263390  19.7472390  31.7912090  37.2011630  20.2364400  31.6448160
  37.5645850  16.2228500  31.3167460  38.2873980  16.7637440  31.6348680
  37.8370370  15.9491920  30.4409000  37.2538040  15.4734690  41.2190080
  37.9014230  14.9232070  40.7785240  37.6739880  15.7277840  42.0405890
  53.6914930  17.5589840  31.3582860  54.6164240  17.4271020  31.1501150
  53.6690720  17.6382660  32.3119310  53.7653420  18.3300500  33.9839570
  52.9704920  18.2645620  34.5132480  53.9696700  19.2651140  33.9724920
  37.0070040  15.6290360  43.9615400  36.6584860  16.0854180  44.7273580
  36.6757740  14.7347490  44.0437830  36.9892690  16.2621760  34.9103030
  37.7472050  16.3750640  34.3367060  36.5269860  17.0990960  34.8646460
  48.0331480  15.0403480  39.1388410  48.6360850  15.6123690  39.6136930
  47.2924470  15.6042920  38.9162310  51.1766080  15.4425040  34.4128690
  51.3716710  16.3408490  34.6796120  50.3895950  15.2112120  34.9061640
  39.3617840  16.7885810  33.4505000  39.8910600  16.0015610  33.3212950
  39.9946160  17.4677000  33.6840530  41.5555680  16.5260950  36.5050390
  40.9258420  15.8248260  36.6720520  41.0160820  17.2865080  36.2883550
  47.1884850  23.2390980  19.8818090  47.1078900  22.3245590  19.6109800
  46.7749270  23.7358050  19.1757800  45.3202890  25.0170000  21.7627360
  44.5444990  24.5370440  22.0525930  45.9715820  24.3375650  21.5883520
  39.3368720  25.3289810  22.6403120  38.5053600  25.0738520  23.0399630
  39.9449700  25.4000580  23.3761040  49.3410320  29.4230190  20.5426490
  48.8791850  28.6517430  20.8713660  50.1535870  29.4496260  21.0478940
  39.3169980  29.3629900  22.8361140  39.6198020  28.4727640  22.6571360
  40.0613570  29.9200120  22.6083390  37.7460670  20.2891700  16.4245510
  36.8577370  20.6307670  16.3225390  38.0301860  20.0892020  15.5326340
  35.7093680  22.8897350  22.3085210  36.2809790  22.1219550  22.3088850
  35.7095220  23.1886110  21.3991820  45.5673630  31.7088200  20.1630480
  44.9485070  32.1645700  19.5924920  46.4225410  31.8639660  19.7620180
  44.7611880  27.6927190  21.7697520  44.6920160  26.7517130  21.6086650
  45.5231740  27.7828600  22.3420090  36.9518550  18.2981710  24.0954140
  36.7721390  17.4007460  24.3756900  36.5498630  18.8453580  24.7701090
  45.7917050  20.4997570  21.9966450  46.1681870  19.6269450  21.8840120
  45.6936560  20.8356270  21.1056890  39.9222060  18.8723200  17.4583890
  40.0288810  19.7726930  17.7652650  39.0114420  18.8241170  17.1678540
  49.5741170  17.9948010  18.9294790  50.3950790  17.5044580  18.9720270
  49.6075250  18.5845670  19.6826630  37.5705220  20.7942210  22.7036480
  38.2515330  21.0580580  23.3223880  37.2553270  19.9543080  23.0374490
  41.7629790  21.8409570  21.7909070  42.2708010  22.3390540  22.4314090
  42.2943030  21.0644770  21.6148430  53.8640720  20.0114760  25.4938420
  53.1592890  20.3996470  24.9753530  54.1298640  20.7065050  26.0959350
  40.0465890  16.4808130  26.0572490  40.0484330  16.9980520  25.2518390
  39.2170200  16.0038310  26.0342420  46.4336980  26.5927440  17.5562390
  45.8154250  27.0576890  16.9925110  46.9460230  27.2854920  17.9731900
  41.2968740  26.1203310  24.2345990  40.9638120  26.7472230  24.8767060
  41.4735420  26.6465190  23.4547660  49.8102650  19.9348390  21.7022330
  49.1058220  20.2233280  22.2825440  50.1714810  20.7448500  21.3421890
  39.7281220  18.1918090  24.0642940  40.0698030  19.0360140  23.7696810
  38.7897030  18.3401830  24.1808280  40.5087840  28.0884110  26.0495170
  41.1261840  28.7635190  25.7679620  39.6480960  28.4972090  25.9582670
  35.8020180  27.2783970  14.9302020  35.4248160  27.7671070  14.1986920
  36.0593250  27.9509250  15.5608550  51.4265430  29.5523520  23.9649810
  50.7428950  30.2222630  23.9566480  51.9659720  29.7504170  23.1994670
  52.8789570  19.3803180  22.0931540  51.9314480  19.4142160  22.2246970
  53.2039560  20.1942130  22.4780900  43.4109110  15.6800360  20.3887530
  43.7184090  15.1247250  19.6723030  42.4809810  15.8144820  20.2060520
  48.9624170  31.3967650  22.6794990  48.9751330  30.9929940  21.8117250
  48.4099390  32.1714940  22.5756420  50.2569590  28.1183870  17.7685160
  50.1465920  27.1758200  17.8934580  50.2537840  28.4799510  18.6547920
  48.3609610  26.2997490  24.0077600  48.7778400  26.0857600  23.1731060
  49.0849430  26.5570280  24.5786220  45.7989870  23.7449190  17.1247650
  44.8719150  23.6786570  17.3536120  45.9514690  24.6829320  17.0102890
  45.7858950  20.0166190  14.1214810  44.8462620  20.1780150  14.2067270
  46.1042210  20.7351870  13.5750800  52.3071710  24.6984710  24.0993840
  51.4790340  24.7677800  23.6243970  52.9022190  25.2839020  23.6309670
  49.8287160  25.3069490  17.6282900  49.2099580  24.9689040  16.9809200
  49.8111610  24.6629250  18.3362090  49.2713720  21.4854030  25.0448710
  48.8584900  22.3107740  25.2988700  48.5389670  20.8999070  24.8525070
  41.4046510  24.2713930  19.9067380  41.0003510  23.5591180  19.4113280
  41.4909630  23.9267170  20.7955420  41.8728210  27.9581490  22.0706590
  41.5756500  27.3526960  21.3914370  42.8228030  27.9958800  21.9595950
  40.1175130  21.0457140  23.6866420  40.6689720  21.1552480  22.9119670
  40.6318640  21.4194740  24.4021650  40.9646640  27.6963180  28.7214390
  40.0675170  27.9203150  28.9687790  40.9899510  27.8198120  27.7725790
  48.0051860  24.5456300  14.6355650  48.4445140  23.7078730  14.4893470
  48.7180280  25.1785700  14.7219790  39.7917860  24.5676500  27.2971760
  39.6525630  25.4399300  27.6659160  38.9099220  24.2249310  27.1519700
  46.1147240  29.4852370  18.6036890  46.5543150  30.2276700  18.1892280
  46.0534130  29.7278940  19.5275850  51.5869000  15.7999110  12.9496690
  51.2741660  15.8925940  13.8495760  52.3481470  16.3780140  12.8994120
  38.1051140  23.1658910  17.4074030  37.9848740  23.8921000  16.7955300
  37.7952030  22.3961820  16.9301940  35.7436510  26.3374050  23.2142670
  35.8216930  26.4722820  22.2698390  36.3578190  25.6289940  23.4070790
  36.9884140  28.0374240  19.6248850  36.5812220  28.1788830  18.7702450
  37.8797150  27.7534400  19.4220060  48.7817420  32.4721490  15.9599900
  48.6218560  32.1824430  16.8581730  48.6164130  31.6961620  15.4245130
  41.2605800  32.2520020  17.7371520  41.0848280  31.3355560  17.5239320
  40.4061540  32.6107310  17.9769320  48.4843550  29.9809050  14.5197900
  47.7908710  29.9786340  13.8600180  49.2266410  29.5568370  14.0892070
  48.0493480  31.6071760  18.5946390  48.5050430  30.8261140  18.9085010
  48.3886000  32.3178580  19.1387570  52.7970290  20.5370610  28.9270830
  52.1814560  21.0450280  28.3986290  52.4766710  19.6368940  28.8696770
  35.7996030  27.3788220  25.7537130  35.9627070  26.9093580  24.9356500
  36.2648480  26.8711780  26.4185970  40.5714800  16.5093980  20.7897700
  40.1282950  17.2903520  20.4582220  41.1299790  16.8323870  21.4968640
  44.8584610  19.3762500  26.3933020  44.3963980  19.5845520  27.2052960
  44.4562720  18.5621850  26.0903690  49.8589120  20.5971450  27.5229680
  49.0082710  20.2977200  27.8438750  49.6990910  20.8413460  26.6113500
  43.6873620  16.1304680  15.6703530  43.0627800  16.1264550  16.3956840
  43.6003740  15.2635640  15.2739500  42.6090700  17.0541310  22.6487300
  42.9063030  17.9604140  22.5679320  43.1576260  16.5660090  22.0346870
  40.3629020  21.6327550  18.5178950  40.1369940  21.4164720  19.4225570
  39.5821550  22.0656010  18.1724920  47.5926780  21.6390920  17.1169600
  46.9935670  22.3626720  16.9333220  48.1406390  21.5767700  16.3346050
  42.8028230  22.5313130  29.1839220  42.7071830  21.5907860  29.0339620
  43.6460210  22.7528200  28.7887290  46.1991650  20.2754460  19.1472880
  46.5921220  20.5926660  18.3341570  46.5608500  19.3966340  19.2617400
  37.9338770  18.9426800  27.3373000  37.5402160  19.7902010  27.5445780
  37.2457170  18.3053170  27.5281640  44.5083820  19.0261770  30.4069740
  43.8182140  18.8333970  31.0415830  45.2516120  19.3096410  30.9394040
  35.2355820  16.8655260  21.3703080  34.9468870  17.4358120  22.0828060
  35.9801580  16.3859710  21.7334310  35.4226050  20.8075380  12.5805800
  35.3400720  21.7506140  12.7220790  35.0709110  20.6650290  11.7018150
  46.7846790  22.8660210  23.2423660  46.0527910  23.3747020  23.5913760
  46.3871130  22.0490190  22.9412440  43.2224180  19.5414410  21.6476150
  43.2260240  19.1004360  20.7980690  44.1175300  19.8631740  21.7547970
  39.0726560  19.4240900  20.6070360  38.7326610  19.9016130  21.3637410
  38.3103880  18.9706020  20.2471460  43.2844330  20.5426490  14.6382910
  43.4057150  20.5012970  15.5868730  42.8992840  21.4050640  14.4829640
  47.2472700  18.3193890  22.6546600  47.2645440  18.7702540  23.4988450
  46.9988280  17.4199530  22.8680040  42.2965830  22.8527630  14.0366210
  41.7282730  22.4045880  13.4102120  43.0054830  23.2120410  13.5031360
  50.6743450  15.7326070  28.4932980  50.9989220  15.0015730  29.0190960
  50.7099960  15.4139710  27.5913970  37.3735010  26.7539650  27.9132940
  36.9889800  26.1133320  28.5115900  37.6847200  27.4575770  28.4827670
  43.5232150  23.6016190  23.3941560  43.8902280  23.1274760  24.1402900
  43.3337210  24.4757760  23.7349900  36.3872640  18.3459880  19.5235030
  36.1019560  17.9815550  20.3613650  36.3251500  17.6140340  18.9098170
  41.3131520  22.6424830  25.7125770  41.0088590  23.5216810  25.9376130
  42.2677980  22.7024620  25.7483210  39.8413310  26.8485820  16.3092620
  39.0675570  26.3083440  16.1491340  40.5707940  26.3292430  15.9710380
  50.6001290  25.8451180  22.1019010  51.3200410  26.3406470  21.7115120
  50.3983110  25.1669070  21.4572880  46.0611230  17.2389140  16.2448400
  45.2475840  16.7402310  16.1693710  45.8673180  18.0787390  15.8284750
  48.7759620  21.6108790  14.5410560  49.6639240  21.9226020  14.3661900
  48.7464710  20.7381040  14.1491140  39.8850710  26.5166200  19.9471430
  40.4029380  25.7134460  19.8928320  39.4334730  26.4545340  20.7888260
  44.7720210  27.7832480  15.2198730  45.1135910  28.5274710  14.7242050
  43.9432920  28.0963600  15.5823560  37.3695250  23.4827570  26.8597130
  37.0110190  24.1481420  27.4470470  37.0749810  22.6511120  27.2309750
  40.5708370  23.9411810  29.7436680  40.2708510  24.0868990  28.8464500
  41.3419610  23.3817100  29.6510070  51.0473890  22.9220630  14.0090420
  50.9637610  23.3534850  13.1586860  51.7668080  23.3818980  14.4417240
  52.0761140  29.7762890  16.7372550  51.4337300  29.1218510  17.0116270
  51.6891800  30.1817980  15.9613220  47.6547620  27.1048320  20.5844240
  48.0071440  26.5076450  19.9245610  46.7709950  26.7792550  20.7552490
  43.7410900  27.8646010  17.9914650  44.4282030  28.4115220  18.3722240
  42.9543320  28.4086740  18.0264260  35.8803300  23.4818830  13.4831730
  36.7498150  23.7643630  13.7667650  35.3893620  24.2954700  13.3680540
  43.0438110  24.8692040  17.6040010  43.5000890  25.6797290  17.8300200
  42.6926320  24.5515180  18.4358500  45.3470720  30.3798380  24.8332310
  45.9912940  30.5857760  25.5105730  45.7100160  29.6186780  24.3803160
  38.9449890  15.2129690  18.0762530  38.8164520  15.2047590  19.0247450
  38.1211910  15.5512780  17.7253540  46.6202800  28.3830730  23.5509760
  47.2625030  27.6823890  23.6641930  47.1452150  29.1629170  23.3706650
  50.4658520  28.6679350  13.2748900  50.2396100  27.9509790  13.8673540
  50.0754720  28.4191790  12.4370650  36.2474550  32.6946210  14.0493360
  36.6072190  33.2935550  13.3950630  36.1066890  33.2406100  14.8228390
  35.9443820  16.9720810  27.5369230  35.2302340  17.1717730  28.1421840
  36.3638860  16.1960380  27.9084030  50.0474770  26.5851290  14.9363060
  49.7596470  27.0463980  15.7240940  50.8426940  26.1249060  15.2047280
  42.2643170  30.0777410  14.8667030  42.2553270  30.8107100  14.2511540
  41.3441530  29.8308990  14.9593990  37.8649810  25.2992300  15.6113790
  37.2577760  26.0391200  15.6209090  38.3399160  25.3891660  14.7851990
  47.4382600  19.4643120  25.2870680  47.8063420  18.6438330  25.6150250
  46.5780800  19.5245010  25.7026330  50.8044630  18.4200060  16.0958240
  50.1757790  18.5245730  15.3816470  50.3096550  18.6396840  16.8852120
  45.2502770  30.1405650  13.5292220  45.3514750  29.9369640  12.5994200
  44.3504510  29.8863930  13.7340000  42.7728660  20.6986010  17.5116120
  42.0644810  21.1672350  17.9529730  43.0573140  20.0408020  18.1461310
  44.3984590  22.1182710  25.5108650  44.8969840  22.5928530  26.1760500
  44.5407540  21.1946230  25.7178680  46.8044090  17.4236670  18.9511910
  46.6811870  17.4422800  18.0021420  47.7528650  17.4715610  19.0710310
  43.8920880  32.6591970  18.2239890  44.1462380  32.6213360  17.3019260
  42.9433360  32.5325300  18.2168140  40.9763680  19.0071090  14.8866830
  41.8254210  19.4441240  14.8207020  40.6094950  19.3191350  15.7138890
  51.6051450  18.3350670  26.3537040  51.1025050  19.0756070  26.6930850
  52.4208110  18.7234670  26.0373830  49.8973460  23.5783850  19.7998400
  48.9563600  23.5934080  19.9746090  50.2117530  22.7919810  20.2458700
  39.8755100  25.2603450  13.3602360  40.6418370  25.1484810  13.9227790
  39.9529790  24.5641420  12.7079130  38.5701860  22.6928520  14.0435250
  38.6505450  21.7456030  14.1552650  39.4621610  23.0235400  14.1495910
  51.8999040  30.7492700  21.4752660  52.0246460  31.5723870  21.9476470
  52.7664600  30.5383430  21.1276810  39.3716570  32.8423910  21.1469790
  40.1079050  32.2939370  21.4178360  39.7557490  33.7079920  21.0075780
  36.2562050  28.9097480  17.0211300  35.3301830  29.1518620  17.0116710
  36.7218480  29.7371740  16.8996050  42.4818880  32.0154220  12.9695360
  43.2747490  32.3043050  12.5177150  41.9623230  31.5846390  12.2907840
  51.5349050  31.2424350  14.3932100  51.2490560  30.8289490  13.5786280
  51.3368600  32.1712060  14.2732620  36.0972660  24.5143440  29.2791420
  36.6011680  23.9350720  29.8507650  35.3580080  24.7983670  29.8167790
  42.9996280  27.2357630  12.8337710  42.8946920  26.6209980  13.5599090
  42.8320500  26.7123520  12.0500720  46.2399010  26.2977660  13.4379700
  45.6909110  26.7446960  14.0822440  46.8618270  25.7926910  13.9617370
  38.1295740  22.6573030  30.1741490  38.1701080  22.3586900  31.0826720
  38.9841240  23.0580640  30.0149010  41.9074130  25.2568580  15.3345000
  42.3290550  25.0908450  16.1776390  42.0324970  24.4468810  14.8400140
  40.0701550  21.2365130  28.1415980  39.5398010  20.7456080  27.5139320
  40.7389620  21.6649330  27.6073910  44.4201770  24.2806190  12.5822100
  44.9407430  23.5655210  12.2163250  45.0670170  24.9192060  12.8822610
  40.5573850  18.2027500  28.2213270  40.4630720  17.5848250  27.4964140
  39.9771240  18.9293790  27.9943180  43.3235290  16.7600740  25.2540660
  42.8752590  16.7825000  24.4086210  42.6900490  16.3619760  25.8510960
  43.7294840  25.6555070  25.8753100  44.1482950  26.4987800  25.7029340
  42.8103470  25.7927110  25.6459880  46.0658740  23.3871250  27.2590940
  46.1854950  22.7912390  27.9985780  46.9252740  23.4240940  26.8392240
  48.4046640  23.9408440  25.8353450  47.8781860  24.4651060  25.2318590
  48.7477980  24.5735830  26.4663180  40.8033030  21.3301810  12.2803160
  40.6022090  20.4669170  12.6416500  40.6325080  21.2435170  11.3424760
  42.8327510  19.9292600  28.5166760  43.4227200  19.6208450  29.2044580
  42.0147750  19.4572350  28.6726660  47.6520940  19.5458410  28.7499780
  46.9636460  18.8839950  28.6849770  48.3726960  19.0996680  29.1948240
  48.2821340  16.1410040  14.8090040  48.5623630  15.2977940  15.1649460
  47.5087070  16.3733150  15.3228790  39.6015830  18.4302430  12.2681040
  39.9041730  18.4369860  11.3600190  40.3410420  18.0800290  12.7648700
  42.8200760  17.3737050  13.2537240  42.4722760  16.6961040  12.6739690
  43.0213530  16.9126560  14.0680630  44.9849800  32.3617800  14.8723840
  45.8800590  32.7002770  14.8942600  45.0167430  31.6397210  14.2448120
  38.6245960  27.7344850  13.1010840  39.0620830  28.2774520  13.7568420
  39.1093690  26.9091800  13.1107180  35.8391760  30.5233880  20.5531100
  36.1694770  29.6554940  20.3209740  36.2682760  30.7292400  21.3836060
  40.4353680  28.8542890  18.2133070  40.1349220  28.7307860  19.1136980
  40.3291170  27.9951480  17.8048800  36.3281970  31.3904470  23.2912730
  35.8912960  31.5705270  24.1236880  36.8959650  32.1479090  23.1494450
  53.2045600  28.6339290  12.9159750  52.3738560  28.7015940  13.3866980
  53.3817430  29.5243410  12.6126610  52.6602060  25.3786770  15.4193950
  53.4220970  25.9483420  15.5253640  52.6756430  24.8113970  16.1902260
  36.1606400  23.9024700  19.6501610  35.5055240  23.6336340  19.0061310
  36.9984350  23.7929180  19.2003590  53.6662030  26.2336870  20.2635880
  54.0370860  25.4504190  19.8571850  54.3063960  26.9225970  20.0853180
  52.7121230  25.6721140  12.5766470  52.9870070  26.5800020  12.4485690
  52.5231970  25.6083670  13.5128460  49.1096840  18.6965990  13.8720100
  49.5281720  18.5096970  13.0316760  48.8032900  17.8445040  14.1823030
  52.6086570  23.6090130  17.5695900  52.2330170  22.8418060  17.1377190
  51.8789690  23.9912830  18.0570830  37.1982330  24.2877270  24.1904950
  37.5655370  24.2004670  25.0700970  36.6293150  23.5243820  24.0911810
  51.9986190  22.7561650  27.2035420  51.7672280  22.5274400  26.3033370
  52.2590740  23.6761200  27.1580310  36.7498330  21.1986360  28.0963370
  35.8554380  21.1653120  28.4357080  37.2895880  21.3973150  28.8614620
  50.4374260  17.9818080  29.9815120  51.3144440  17.9901480  30.3649120
  50.4495100  17.2448920  29.3707470  35.3744480  21.1123630  15.5926940
  34.4708560  21.3753830  15.4178600  35.8585100  21.3834800  14.8126900
  51.8837530  21.8347620  20.8703140  52.4075010  21.3410270  20.2393310
  52.4696950  21.9697980  21.6150710  52.0627250  21.9187490  24.3922690
  51.1129960  21.8851030  24.5067680  52.2440260  22.8287600  24.1572460
  37.9171690  20.1689170  13.5021320  38.6263390  19.7472390  13.0168600
  37.2011630  20.2364400  12.8704670  37.5645850  16.2228500  12.5423970
  38.2873980  16.7637440  12.8605190  37.8370370  15.9491920  11.6665510
  51.3737500  21.0920970  16.8095550  51.8696620  20.8591840  17.5944430
  51.1753570  20.2532810  16.3933190  37.2538040  15.4734690  22.4446590
  37.9014230  14.9232070  22.0041750  37.6739880  15.7277840  23.2662400
  52.8024660  19.7281920  19.3433230  52.6923940  19.5737960  20.2815500
  53.5632250  19.2002860  19.1008640  51.1490380  15.6676050  25.8016230
  51.7862600  16.2810190  26.1675420  51.2965270  15.7036710  24.8565460
  53.6914930  17.5589840  12.5839370  54.6164240  17.4271020  12.3757660
  53.6690720  17.6382660  13.5375820  53.7653420  18.3300500  15.2096080
  52.9704920  18.2645620  15.7388990  53.9696700  19.2651140  15.1981430
  50.7071840  32.3692050  19.2034470  51.3030910  32.0476620  18.5268890
  50.9649990  31.8963870  19.9947740  37.0070040  15.6290360  25.1871910
  36.6584860  16.0854180  25.9530090  36.6757740  14.7347490  25.2694340
  42.3140440  30.3569550  24.9534820  42.0731800  30.6244110  24.0665340
  43.2543080  30.5275280  25.0085680  44.5194860  16.8202240  28.7091330
  44.4583750  17.4124070  29.4586740  45.4595240  16.7128200  28.5641590
  47.1569420  16.4772300  28.3483620  47.7709830  16.7951590  27.6864700
  47.7018980  15.9920890  28.9679480  53.5744600  32.3763930  25.7545460
  53.0802880  32.7732800  25.0372590  52.9657890  31.7513140  26.1482740
  37.6790680  15.1566560  28.4622680  38.2273670  14.9754610  27.6988790
  37.7445990  14.3660670  28.9978990  38.4522440  31.7472210  26.4722880
  37.8582760  31.6156910  27.2112920  38.4446280  30.9110350  26.0064980
  47.8977460  15.0404440  24.6752910  47.0237300  15.3739550  24.4725840
  47.7888210  14.5677620  25.5004780  48.8049440  17.2475310  26.0594630
  48.4762800  16.4327070  25.6796360  49.7531740  17.2045120  25.9360320
  51.2584050  33.0187350  23.0332200  50.7987020  33.7703160  22.6590220
  50.6296510  32.2993820  22.9747000  38.0834670  29.1130590  25.4230920
  37.3568730  28.4935880  25.3556870  38.1443820  29.5071200  24.5529000
  41.6879770  31.3275590  22.2080330  42.2044790  30.7162950  21.6828590
  42.3377150  31.8304370  22.6991340  44.4275270  32.2184080  23.0349310
  44.7153080  31.9638380  22.1582320  44.9398490  31.6661440  23.6254880
  45.6452280  15.9574280  23.6145820  44.8624070  16.4319780  23.8942580
  45.3515210  15.0529110  23.5059000  50.1973350  16.6597380  21.6594910
  50.6381440  16.6042480  20.8116510  49.9280940  17.5755390  21.7305090
  52.0611920  16.2912620  19.6703730  52.0000320  15.3473840  19.5234750
  52.8403950  16.3992710  20.2157190  36.3664670  32.4304980  18.6327680
  36.1986710  31.7975660  19.3309570  35.4999180  32.6364380  18.2821870
  36.9892690  16.2621760  16.1359540  37.7472050  16.3750640  15.5623570
  36.5269860  17.0990960  16.0902970  43.5306500  18.3761030  19.1261850
  42.7181010  18.0017920  18.7857730  44.0348140  17.6206110  19.4283040
  48.0331480  15.0403480  20.3644920  48.6360850  15.6123690  20.8393440
  47.2924470  15.6042920  20.1418820  51.1766080  15.4425040  15.6385200
  51.3716710  16.3408490  15.9052630  50.3895950  15.2112120  16.1318150
  37.9727370  31.1238210  16.0777820  37.4474990  31.5046240  15.3739780
  37.8971950  31.7488980  16.7987530  39.3617840  16.7885810  14.6761510
  39.8910600  16.0015610  14.5469460  39.9946160  17.4677000  14.9097040
  41.5555680  16.5260950  17.7306900  40.9258420  15.8248260  17.8977030
  41.0160820  17.2865080  17.5140060  52.7292690  32.6825750  17.3991760
  52.9044880  31.9963490  16.7552680  52.0314260  33.2072800  17.0068430
  41.6811240  15.8044930  30.1659390  41.3995510  16.3078530  29.4020210
  42.0630940  15.0066680  29.8001520  40.5720340  33.0720590  14.9527070
  41.3039160  32.7879870  14.4050960  40.8314010  32.8333870  15.8426450
  39.7335130  29.1885320  14.9573400  39.1044010  29.6570420  15.5059230
  39.8482960  28.3434540  15.3919590  48.2826700  15.2198510  30.7439860
  48.1692150  15.5393120  31.6391380  49.0996440  15.6211020  30.4477140
  45.3202890  25.0170000   2.9883870  44.5444990  24.5370440   3.2782440
  45.9715820  24.3375650   2.8140030  39.3368720  25.3289810   3.8659630
  38.5053600  25.0738520   4.2656140  39.9449700  25.4000580   4.6017550
  49.3410320  29.4230190   1.7683000  48.8791850  28.6517430   2.0970170
  50.1535870  29.4496260   2.2735450  39.3169980  29.3629900   4.0617650
  39.6198020  28.4727640   3.8827870  40.0613570  29.9200120   3.8339900
  35.7093680  22.8897350   3.5341720  36.2809790  22.1219550   3.5345360
  35.7095220  23.1886110   2.6248330  44.7611880  27.6927190   2.9954030
  44.6920160  26.7517130   2.8343160  45.5231740  27.7828600   3.5676600
  36.9518550  18.2981710   5.3210650  36.7721390  17.4007460   5.6013410
  36.5498630  18.8453580   5.9957600  45.7917050  20.4997570   3.2222960
  46.1681870  19.6269450   3.1096630  45.6936560  20.8356270   2.3313400
  37.5705220  20.7942210   3.9292990  38.2515330  21.0580580   4.5480390
  37.2553270  19.9543080   4.2631000  41.7629790  21.8409570   3.0165580
  42.2708010  22.3390540   3.6570600  42.2943030  21.0644770   2.8404940
  53.8640720  20.0114760   6.7194930  53.1592890  20.3996470   6.2010040
  54.1298640  20.7065050   7.3215860  40.0465890  16.4808130   7.2829000
  40.0484330  16.9980520   6.4774900  39.2170200  16.0038310   7.2598930
  41.2968740  26.1203310   5.4602500  40.9638120  26.7472230   6.1023570
  41.4735420  26.6465190   4.6804170  49.8102650  19.9348390   2.9278840
  49.1058220  20.2233280   3.5081950  50.1714810  20.7448500   2.5678400
  39.7281220  18.1918090   5.2899450  40.0698030  19.0360140   4.9953320
  38.7897030  18.3401830   5.4064790  40.5087840  28.0884110   7.2751680
  41.1261840  28.7635190   6.9936130  39.6480960  28.4972090   7.1839180
  51.4265430  29.5523520   5.1906320  50.7428950  30.2222630   5.1822990
  51.9659720  29.7504170   4.4251180  52.8789570  19.3803180   3.3188050
  51.9314480  19.4142160   3.4503480  53.2039560  20.1942130   3.7037410
  48.9624170  31.3967650   3.9051500  48.9751330  30.9929940   3.0373760
  48.4099390  32.1714940   3.8012930  48.3609610  26.2997490   5.2334110
  48.7778400  26.0857600   4.3987570  49.0849430  26.5570280   5.8042730
  52.3071710  24.6984710   5.3250350  51.4790340  24.7677800   4.8500480
  52.9022190  25.2839020   4.8566180  49.2713720  21.4854030   6.2705220
  48.8584900  22.3107740   6.5245210  48.5389670  20.8999070   6.0781580
  41.8728210  27.9581490   3.2963100  41.5756500  27.3526960   2.6170880
  42.8228030  27.9958800   3.1852460  40.1175130  21.0457140   4.9122930
  40.6689720  21.1552480   4.1376180  40.6318640  21.4194740   5.6278160
  49.9613820  31.5313360   6.9586200  49.4844380  32.3385550   6.7658810
  49.2775610  30.8791690   7.1112410  40.9646640  27.6963180   9.9470900
  40.0675170  27.9203150  10.1944300  40.9899510  27.8198120   8.9982300
  39.7917860  24.5676500   8.5228270  39.6525630  25.4399300   8.8915670
  38.9099220  24.2249310   8.3776210  41.5898210  30.5098200  10.7313420
  41.5613640  30.9141150   9.8641850  41.4263180  29.5808560  10.5685020
  53.5413030  31.2925300  12.0277590  54.0172750  31.7708190  12.7066670
  54.1620190  31.2242790  11.3023090  35.7436510  26.3374050   4.4399180
  35.8216930  26.4722820   3.4954900  36.3578190  25.6289940   4.6327300
  52.9446280  28.4838150   9.1877600  53.0709340  28.2450030   8.2694780
  52.9867660  27.6522690   9.6599680  46.8063020  32.1866150   7.7572410
  47.3207690  32.0974160   8.5594840  45.9632100  32.5325850   8.0500320
  52.7970290  20.5370610  10.1527340  52.1814560  21.0450280   9.6242800
  52.4766710  19.6368940  10.0953280  35.7996030  27.3788220   6.9793640
  35.9627070  26.9093580   6.1613010  36.2648480  26.8711780   7.6442480
  40.5714800  16.5093980   2.0154210  40.1282950  17.2903520   1.6838730
  41.1299790  16.8323870   2.7225150  44.8584610  19.3762500   7.6189530
  44.3963980  19.5845520   8.4309470  44.4562720  18.5621850   7.3160200
  49.8589120  20.5971450   8.7486190  49.0082710  20.2977200   9.0695260
  49.6990910  20.8413460   7.8370010  46.9538830  22.0973200  10.8484980
  47.2792240  21.2636950  10.5087210  47.7419160  22.6201720  10.9963310
  42.6090700  17.0541310   3.8743810  42.9063030  17.9604140   3.7935830
  43.1576260  16.5660090   3.2603380  42.8028230  22.5313130  10.4095730
  42.7071830  21.5907860  10.2596130  43.6460210  22.7528200  10.0143800
  37.9338770  18.9426800   8.5629510  37.5402160  19.7902010   8.7702290
  37.2457170  18.3053170   8.7538150  44.5083820  19.0261770  11.6326250
  43.8182140  18.8333970  12.2672340  45.2516120  19.3096410  12.1650550
  35.2355820  16.8655260   2.5959590  34.9468870  17.4358120   3.3084570
  35.9801580  16.3859710   2.9590820  46.7846790  22.8660210   4.4680170
  46.0527910  23.3747020   4.8170270  46.3871130  22.0490190   4.1668950
  43.2224180  19.5414410   2.8732660  43.2260240  19.1004360   2.0237200
  44.1175300  19.8631740   2.9804480  47.2472700  18.3193890   3.8803110
  47.2645440  18.7702540   4.7244960  46.9988280  17.4199530   4.0936550
  50.6743450  15.7326070   9.7189490  50.9989220  15.0015730  10.2447470
  50.7099960  15.4139710   8.8170480  37.3735010  26.7539650   9.1389450
  36.9889800  26.1133320   9.7372410  37.6847200  27.4575770   9.7084180
  43.5232150  23.6016190   4.6198070  43.8902280  23.1274760   5.3659410
  43.3337210  24.4757760   4.9606410  41.3131520  22.6424830   6.9382280
  41.0088590  23.5216810   7.1632640  42.2677980  22.7024620   6.9739720
  50.6001290  25.8451180   3.3275520  51.3200410  26.3406470   2.9371630
  50.3983110  25.1669070   2.6829390  45.9820090  25.9160240   9.2144520
  45.9157400  24.9955910   8.9602110  45.3525230  26.0135680   9.9289160
  37.3695250  23.4827570   8.0853640  37.0110190  24.1481420   8.6726980
  37.0749810  22.6511120   8.4566260  40.5708370  23.9411810  10.9693190
  40.2708510  24.0868990  10.0721010  41.3419610  23.3817100  10.8766580
  45.9136820  28.7380810   8.9648320  45.9281360  27.8061770   8.7467230
  45.2061920  28.8240570   9.6038090  52.1248030  25.3788150   8.3116900
  51.3996220  25.9716930   8.1146290  52.6523490  25.3711690   7.5130270
  45.3470720  30.3798380   6.0588820  45.9912940  30.5857760   6.7362240
  45.7100160  29.6186780   5.6059670  46.6202800  28.3830730   4.7766270
  47.2625030  27.6823890   4.8898440  47.1452150  29.1629170   4.5963160
  48.3940420  29.1825630   7.9802330  48.7296660  29.7692320   8.6580250
  47.4740760  29.0518340   8.2100120  35.9443820  16.9720810   8.7625740
  35.2302340  17.1717730   9.3678350  36.3638860  16.1960380   9.1340540
  36.2316410  30.9601070   9.7492270  36.3407530  30.0195810   9.6087660
  35.5796970  31.2255820   9.1006000  44.2229000  29.2316960  11.1490390
  43.9025870  28.5126200  11.6936080  43.5487360  29.9072030  11.2226450
  47.4382600  19.4643120   6.5127190  47.8063420  18.6438330   6.8406760
  46.5780800  19.5245010   6.9282840  44.3984590  22.1182710   6.7365160
  44.8969840  22.5928530   7.4017010  44.5407540  21.1946230   6.9435190
  51.6051450  18.3350670   7.5793550  51.1025050  19.0756070   7.9187360
  52.4208110  18.7234670   7.2630340  51.8999040  30.7492700   2.7009170
  52.0246460  31.5723870   3.1732980  52.7664600  30.5383430   2.3533320
  39.3716570  32.8423910   2.3726300  40.1079050  32.2939370   2.6434870
  39.7557490  33.7079920   2.2332290  38.3774850  32.0269980  11.5611880
  39.1787580  32.3482030  11.9747280  37.8626670  31.6665560  12.2831790
  47.2139480  28.1349850  11.5087290  46.6077640  28.1581450  10.7683040
  46.9093590  27.4032890  12.0454540  48.6439850  31.8630140  10.1196700
  49.5961600  31.7788160  10.0696940  48.4968070  32.5271850  10.7930490
  36.0972660  24.5143440  10.5047930  36.6011680  23.9350720  11.0764160
  35.3580080  24.7983670  11.0424300  43.1510600  25.9214430  10.0383450
  42.3856270  26.4899430   9.9538120  43.3326560  25.6290640   9.1451680
  50.2933950  27.6519760  10.5958470  51.0343420  27.9895520  10.0925930
  49.5306630  27.8211820  10.0428240  38.1295740  22.6573030  11.3998000
  38.1701080  22.3586900  12.3083230  38.9841240  23.0580640  11.2405520
  40.0701550  21.2365130   9.3672490  39.5398010  20.7456080   8.7395830
  40.7389620  21.6649330   8.8330420  48.9679610  25.7034590   9.1313680
  49.3820630  25.8579670   9.9804100  48.0330610  25.8289810   9.2939460
  49.4401780  23.0430750  11.1352830  50.0222550  22.2883070  11.0473310
  49.6163550  23.5738190  10.3584310  40.5573850  18.2027500   9.4469780
  40.4630720  17.5848250   8.7220650  39.9771240  18.9293790   9.2199690
  43.3235290  16.7600740   6.4797170  42.8752590  16.7825000   5.6342720
  42.6900490  16.3619760   7.0767470  43.7294840  25.6555070   7.1009610
  44.1482950  26.4987800   6.9285850  42.8103470  25.7927110   6.8716390
  46.0658740  23.3871250   8.4847450  46.1854950  22.7912390   9.2242290
  46.9252740  23.4240940   8.0648750  48.4046640  23.9408440   7.0609960
  47.8781860  24.4651060   6.4575100  48.7477980  24.5735830   7.6919690
  41.5802260  31.9608080   8.2167340  41.0423350  32.6854140   7.8976040
  41.8336220  31.4838420   7.4264680  42.8327510  19.9292600   9.7423270
  43.4227200  19.6208450  10.4301090  42.0147750  19.4572350   9.8983170
  47.6520940  19.5458410   9.9756290  46.9636460  18.8839950   9.9106280
  48.3726960  19.0996680  10.4204750  44.4364470  33.1959290   8.4753990
  44.3623170  34.0994430   8.7826360  43.5343310  32.8771190   8.4476060
  36.3281970  31.3904470   4.5169240  35.8912960  31.5705270   5.3493390
  36.8959650  32.1479090   4.3750960  51.9644150  30.8921470   8.8046550
  51.3646140  30.9514030   8.0610470  52.0938050  29.9526450   8.9343400
  50.6495790  27.6173450   6.9022710  49.8355630  28.0470610   7.1648500
  51.0569990  28.2291860   6.2891760  37.1982330  24.2877270   5.4161460
  37.5655370  24.2004670   6.2957480  36.6293150  23.5243820   5.3168320
  51.9986190  22.7561650   8.4291930  51.7672280  22.5274400   7.5289880
  52.2590740  23.6761200   8.3836820  36.7498330  21.1986360   9.3219880
  35.8554380  21.1653120   9.6613590  37.2895880  21.3973150  10.0871130
  50.4374260  17.9818080  11.2071630  51.3144440  17.9901480  11.5905630
  50.4495100  17.2448920  10.5963980  52.0627250  21.9187490   5.6179200
  51.1129960  21.8851030   5.7324190  52.2440260  22.8287600   5.3828970
  37.2538040  15.4734690   3.6703100  37.9014230  14.9232070   3.2298260
  37.6739880  15.7277840   4.4918910  51.1490380  15.6676050   7.0272740
  51.7862600  16.2810190   7.3931930  51.2965270  15.7036710   6.0821970
  37.0070040  15.6290360   6.4128420  36.6584860  16.0854180   7.1786600
  36.6757740  14.7347490   6.4950850  38.6134410  28.8009960  10.5781610
  38.5704040  28.4302870  11.4596070  38.7445420  29.7387530  10.7183430
  42.3140440  30.3569550   6.1791330  42.0731800  30.6244110   5.2921850
  43.2543080  30.5275280   6.2342190  44.5194860  16.8202240   9.9347840
  44.4583750  17.4124070  10.6843250  45.4595240  16.7128200   9.7898100
  47.1569420  16.4772300   9.5740130  47.7709830  16.7951590   8.9121210
  47.7018980  15.9920890  10.1935990  53.5744600  32.3763930   6.9801970
  53.0802880  32.7732800   6.2629100  52.9657890  31.7513140   7.3739250
  37.6790680  15.1566560   9.6879190  38.2273670  14.9754610   8.9245300
  37.7445990  14.3660670  10.2235500  38.4522440  31.7472210   7.6979390
  37.8582760  31.6156910   8.4369430  38.4446280  30.9110350   7.2321490
  47.8977460  15.0404440   5.9009420  47.0237300  15.3739550   5.6982350
  47.7888210  14.5677620   6.7261290  48.8049440  17.2475310   7.2851140
  48.4762800  16.4327070   6.9052870  49.7531740  17.2045120   7.1616830
  51.2584050  33.0187350   4.2588710  50.7987020  33.7703160   3.8846730
  50.6296510  32.2993820   4.2003510  38.0834670  29.1130590   6.6487430
  37.3568730  28.4935880   6.5813380  38.1443820  29.5071200   5.7785510
  41.6879770  31.3275590   3.4336840  42.2044790  30.7162950   2.9085100
  42.3377150  31.8304370   3.9247850  44.4275270  32.2184080   4.2605820
  44.7153080  31.9638380   3.3838830  44.9398490  31.6661440   4.8511390
  45.6452280  15.9574280   4.8402330  44.8624070  16.4319780   5.1199090
  45.3515210  15.0529110   4.7315510  50.1973350  16.6597380   2.8851420
  50.6381440  16.6042480   2.0373020  49.9280940  17.5755390   2.9561600
  44.4947630  33.1400180  11.6274020  45.4214940  32.9044450  11.6709980
  44.4798060  33.9672180  11.1460050  41.6811240  15.8044930  11.3915900
  41.3995510  16.3078530  10.6276720  42.0630940  15.0066680  11.0258030
  48.2826700  15.2198510  11.9696370  48.1692150  15.5393120  12.8647890
  49.0996440  15.6211020  11.6733650  51.0625190  32.3670040  11.4515060
  51.8550510  31.8719270  11.2441020  51.3558340  33.0460180  12.0590670
  47.1884850   4.4647490  76.2048560  47.1078900   3.5502100  75.9340270
  46.7749270   4.9614560  75.4988270  45.3202890   6.2426510  78.0857830
  44.5444990   5.7626950  78.3756400  45.9715820   5.5632160  77.9113990
  49.3410320  10.6486700  76.8656960  48.8791850   9.8773940  77.1944130
  50.1535870  10.6752770  77.3709410  35.7093680   4.1153860  78.6315680
  36.2809790   3.3476060  78.6319320  35.7095220   4.4142620  77.7222290
  45.5673630  12.9344710  76.4860950  44.9485070  13.3902210  75.9155390
  46.4225410  13.0896170  76.0850650  44.7611880   8.9183700  78.0927990
  44.6920160   7.9773640  77.9317120  45.5231740   9.0085110  78.6650560
  41.7629790   3.0666080  78.1139540  42.2708010   3.5647050  78.7544560
  42.2943030   2.2901280  77.9378900  46.4336980   7.8183950  73.8792860
  45.8154250   8.2833400  73.3155580  46.9460230   8.5111430  74.2962370
  35.8020180   8.5040480  71.2532490  35.4248160   8.9927580  70.5217390
  36.0593250   9.1765760  71.8839020  50.2569590   9.3440380  74.0915630
  50.1465920   8.4014710  74.2165050  50.2537840   9.7056020  74.9778390
  45.7989870   4.9705700  73.4478120  44.8719150   4.9043080  73.6766590
  45.9514690   5.9085830  73.3333360  49.8287160   6.5326000  73.9513370
  49.2099580   6.1945550  73.3039670  49.8111610   5.8885760  74.6592560
  41.4046510   5.4970440  76.2297850  41.0003510   4.7847690  75.7343750
  41.4909630   5.1523680  77.1185890  41.8728210   9.1838000  78.3937060
  41.5756500   8.5783470  77.7144840  42.8228030   9.2215310  78.2826420
  48.0051860   5.7712810  70.9586120  48.4445140   4.9335240  70.8123940
  48.7180280   6.4042210  71.0450260  46.1147240  10.7108880  74.9267360
  46.5543150  11.4533210  74.5122750  46.0534130  10.9535450  75.8506320
  38.1051140   4.3915420  73.7304500  37.9848740   5.1177510  73.1185770
  37.7952030   3.6218330  73.2532410  36.9884140   9.2630750  75.9479320
  36.5812220   9.4045340  75.0932920  37.8797150   8.9790910  75.7450530
  48.7817420  13.6978000  72.2830370  48.6218560  13.4080940  73.1812200
  48.6164130  12.9218130  71.7475600  41.2605800  13.4776530  74.0601990
  41.0848280  12.5612070  73.8469790  40.4061540  13.8363820  74.2999790
  48.4843550  11.2065560  70.8428370  47.7908710  11.2042850  70.1830650
  49.2266410  10.7824880  70.4122540  48.0493480  12.8328270  74.9176860
  48.5050430  12.0517650  75.2315480  48.3886000  13.5435090  75.4618040
  40.3629020   2.8584060  74.8409420  40.1369940   2.6421230  75.7456040
  39.5821550   3.2912520  74.4955390  47.5926780   2.8647430  73.4400070
  46.9935670   3.5883230  73.2563690  48.1406390   2.8024210  72.6576520
  35.4226050   2.0331890  68.9036270  35.3400720   2.9762650  69.0451260
  35.0709110   1.8906800  68.0248620  43.2844330   1.7683000  70.9613380
  43.4057150   1.7269480  71.9099200  42.8992840   2.6307150  70.8060110
  42.2965830   4.0784140  70.3596680  41.7282730   3.6302390  69.7332590
  43.0054830   4.4376920  69.8261830  39.8413310   8.0742330  72.6323090
  39.0675570   7.5339950  72.4721810  40.5707940   7.5548940  72.2940850
  50.6001290   7.0707690  78.4249480  51.3200410   7.5662980  78.0345590
  50.3983110   6.3925580  77.7803350  48.7759620   2.8365300  70.8641030
  49.6639240   3.1482530  70.6892370  48.7464710   1.9637550  70.4721610
  39.8850710   7.7422710  76.2701900  40.4029380   6.9390970  76.2158790
  39.4334730   7.6801850  77.1118730  44.7720210   9.0088990  71.5429200
  45.1135910   9.7531220  71.0472520  43.9432920   9.3220110  71.9054030
  51.0473890   4.1477140  70.3320890  50.9637610   4.5791360  69.4817330
  51.7668080   4.6075490  70.7647710  52.0761140  11.0019400  73.0603020
  51.4337300  10.3475020  73.3346740  51.6891800  11.4074490  72.2843690
  47.6547620   8.3304830  76.9074710  48.0071440   7.7332960  76.2476080
  46.7709950   8.0049060  77.0782960  43.7410900   9.0902520  74.3145120
  44.4282030   9.6371730  74.6952710  42.9543320   9.6343250  74.3494730
  35.8803300   4.7075340  69.8062200  36.7498150   4.9900140  70.0898120
  35.3893620   5.5211210  69.6911010  43.0438110   6.0948550  73.9270480
  43.5000890   6.9053800  74.1530670  42.6926320   5.7771690  74.7588970
  50.4658520   9.8935860  69.5979370  50.2396100   9.1766300  70.1904010
  50.0754720   9.6448300  68.7601120  36.2474550  13.9202720  70.3723830
  36.6072190  14.5192060  69.7181100  36.1066890  14.4662610  71.1458860
  50.0474770   7.8107800  71.2593530  49.7596470   8.2720490  72.0471410
  50.8426940   7.3505570  71.5277750  42.2643170  11.3033920  71.1897500
  42.2553270  12.0363610  70.5742010  41.3441530  11.0565500  71.2824460
  37.8649810   6.5248810  71.9344260  37.2577760   7.2647710  71.9439560
  38.3399160   6.6148170  71.1082460  45.2502770  11.3662160  69.8522690
  45.3514750  11.1626150  68.9224670  44.3504510  11.1120440  70.0570470
  43.8920880  13.8848480  74.5470360  44.1462380  13.8469870  73.6249730
  42.9433360  13.7581810  74.5398610  49.8973460   4.8040360  76.1228870
  48.9563600   4.8190590  76.2976560  50.2117530   4.0176320  76.5689170
  39.8755100   6.4859960  69.6832830  40.6418370   6.3741320  70.2458260
  39.9529790   5.7897930  69.0309600  38.5701860   3.9185030  70.3665720
  38.6505450   2.9712540  70.4783120  39.4621610   4.2491910  70.4726380
  51.8999040  11.9749210  77.7983130  52.0246460  12.7980380  78.2706940
  52.7664600  11.7639940  77.4507280  39.3716570  14.0680420  77.4700260
  40.1079050  13.5195880  77.7408830  39.7557490  14.9336430  77.3306250
  36.2562050  10.1353990  73.3441770  35.3301830  10.3775130  73.3347180
  36.7218480  10.9628250  73.2226520  42.4818880  13.2410730  69.2925830
  43.2747490  13.5299560  68.8407620  41.9623230  12.8102900  68.6138310
  51.5349050  12.4680860  70.7162570  51.2490560  12.0546000  69.9016750
  51.3368600  13.3968570  70.5963090  42.9996280   8.4614140  69.1568180
  42.8946920   7.8466490  69.8829560  42.8320500   7.9380030  68.3731190
  46.2399010   7.5234170  69.7610170  45.6909110   7.9703470  70.4052910
  46.8618270   7.0183420  70.2847840  41.9074130   6.4825090  71.6575470
  42.3290550   6.3164960  72.5006860  42.0324970   5.6725320  71.1630610
  44.4201770   5.5062700  68.9052570  44.9407430   4.7911720  68.5393720
  45.0670170   6.1448570  69.2053080  40.8033030   2.5558320  68.6033630
  40.6022090   1.6925680  68.9646970  40.6325080   2.4691680  67.6655230
  44.9849800  13.5874310  71.1954310  45.8800590  13.9259280  71.2173070
  45.0167430  12.8653720  70.5678590  38.6245960   8.9601360  69.4241310
  39.0620830   9.5031030  70.0798890  39.1093690   8.1348310  69.4337650
  35.8391760  11.7490390  76.8761570  36.1694770  10.8811450  76.6440210
  36.2682760  11.9548910  77.7066530  40.4353680  10.0799400  74.5363540
  40.1349220   9.9564370  75.4367450  40.3291170   9.2207990  74.1279270
  53.2045600   9.8595800  69.2390220  52.3738560   9.9272450  69.7097450
  53.3817430  10.7499920  68.9357080  52.6602060   6.6043280  71.7424420
  53.4220970   7.1739930  71.8484110  52.6756430   6.0370480  72.5132730
  36.1606400   5.1281210  75.9732080  35.5055240   4.8592850  75.3291780
  36.9984350   5.0185690  75.5234060  53.6662030   7.4593380  76.5866350
  54.0370860   6.6760700  76.1802320  54.3063960   8.1482480  76.4083650
  52.7121230   6.8977650  68.8996940  52.9870070   7.8056530  68.7716160
  52.5231970   6.8340180  69.8358930  52.6086570   4.8346640  73.8926370
  52.2330170   4.0674570  73.4607660  51.8789690   5.2169340  74.3801300
  35.3744480   2.3380140  71.9157410  34.4708560   2.6010340  71.7409070
  35.8585100   2.6091310  71.1357370  51.8837530   3.0604130  77.1933610
  52.4075010   2.5666780  76.5623780  52.4696950   3.1954490  77.9381180
  51.3737500   2.3177480  73.1326020  51.8696620   2.0848350  73.9174900
  51.1753570   1.4789320  72.7163660  50.7071840  13.5948560  75.5264940
  51.3030910  13.2733130  74.8499360  50.9649990  13.1220380  76.3178210
  36.3664670  13.6561490  74.9558150  36.1986710  13.0232170  75.6540040
  35.4999180  13.8620890  74.6052340  37.9727370  12.3494720  72.4008290
  37.4474990  12.7302750  71.6970250  37.8971950  12.9745490  73.1218000
  52.7292690  13.9082260  73.7222230  52.9044880  13.2220000  73.0783150
  52.0314260  14.4329310  73.3298900  40.5720340  14.2977100  71.2757540
  41.3039160  14.0136380  70.7281430  40.8314010  14.0590380  72.1656920
  39.7335130  10.4141830  71.2803870  39.1044010  10.8826930  71.8289700
  39.8482960   9.5691050  71.7150060  47.1884850   4.4647490  57.4305070
  47.1078900   3.5502100  57.1596780  46.7749270   4.9614560  56.7244780
  45.3202890   6.2426510  59.3114340  44.5444990   5.7626950  59.6012910
  45.9715820   5.5632160  59.1370500  39.3368720   6.5546320  60.1890100
  38.5053600   6.2995030  60.5886610  39.9449700   6.6257090  60.9248020
  49.3410320  10.6486700  58.0913470  48.8791850   9.8773940  58.4200640
  50.1535870  10.6752770  58.5965920  39.3169980  10.5886410  60.3848120
  39.6198020   9.6984150  60.2058340  40.0613570  11.1456630  60.1570370
  35.7093680   4.1153860  59.8572190  36.2809790   3.3476060  59.8575830
  35.7095220   4.4142620  58.9478800  45.5673630  12.9344710  57.7117460
  44.9485070  13.3902210  57.1411900  46.4225410  13.0896170  57.3107160
  44.7611880   8.9183700  59.3184500  44.6920160   7.9773640  59.1573630
  45.5231740   9.0085110  59.8907070  41.7629790   3.0666080  59.3396050
  42.2708010   3.5647050  59.9801070  42.2943030   2.2901280  59.1635410
  46.4336980   7.8183950  55.1049370  45.8154250   8.2833400  54.5412090
  46.9460230   8.5111430  55.5218880  41.2968740   7.3459820  61.7832970
  40.9638120   7.9728740  62.4254040  41.4735420   7.8721700  61.0034640
  40.5087840   9.3140620  63.5982150  41.1261840   9.9891700  63.3166600
  39.6480960   9.7228600  63.5069650  35.8020180   8.5040480  52.4789000
  35.4248160   8.9927580  51.7473900  36.0593250   9.1765760  53.1095530
  51.4265430  10.7780030  61.5136790  50.7428950  11.4479140  61.5053460
  51.9659720  10.9760680  60.7481650  48.9624170  12.6224160  60.2281970
  48.9751330  12.2186450  59.3604230  48.4099390  13.3971450  60.1243400
  50.2569590   9.3440380  55.3172140  50.1465920   8.4014710  55.4421560
  50.2537840   9.7056020  56.2034900  48.3609610   7.5254000  61.5564580
  48.7778400   7.3114110  60.7218040  49.0849430   7.7826790  62.1273200
  45.7989870   4.9705700  54.6734630  44.8719150   4.9043080  54.9023100
  45.9514690   5.9085830  54.5589870  52.3071710   5.9241220  61.6480820
  51.4790340   5.9934310  61.1730950  52.9022190   6.5095530  61.1796650
  49.8287160   6.5326000  55.1769880  49.2099580   6.1945550  54.5296180
  49.8111610   5.8885760  55.8849070  49.2713720   2.7110540  62.5935690
  48.8584900   3.5364250  62.8475680  48.5389670   2.1255580  62.4012050
  41.4046510   5.4970440  57.4554360  41.0003510   4.7847690  56.9600260
  41.4909630   5.1523680  58.3442400  41.8728210   9.1838000  59.6193570
  41.5756500   8.5783470  58.9401350  42.8228030   9.2215310  59.5082930
  40.1175130   2.2713650  61.2353400  40.6689720   2.3808990  60.4606650
  40.6318640   2.6451250  61.9508630  49.9613820  12.7569870  63.2816670
  49.4844380  13.5642060  63.0889280  49.2775610  12.1048200  63.4342880
  40.9646640   8.9219690  66.2701370  40.0675170   9.1459660  66.5174770
  40.9899510   9.0454630  65.3212770  48.0051860   5.7712810  52.1842630
  48.4445140   4.9335240  52.0380450  48.7180280   6.4042210  52.2706770
  39.7917860   5.7933010  64.8458740  39.6525630   6.6655810  65.2146140
  38.9099220   5.4505820  64.7006680  46.1147240  10.7108880  56.1523870
  46.5543150  11.4533210  55.7379260  46.0534130  10.9535450  57.0762830
  41.5898210  11.7354710  67.0543890  41.5613640  12.1397660  66.1872320
  41.4263180  10.8065070  66.8915490  38.1051140   4.3915420  54.9561010
  37.9848740   5.1177510  54.3442280  37.7952030   3.6218330  54.4788920
  53.5413030  12.5181810  68.3508060  54.0172750  12.9964700  69.0297140
  54.1620190  12.4499300  67.6253560  35.7436510   7.5630560  60.7629650
  35.8216930   7.6979330  59.8185370  36.3578190   6.8546450  60.9557770
  36.9884140   9.2630750  57.1735830  36.5812220   9.4045340  56.3189430
  37.8797150   8.9790910  56.9707040  52.9446280   9.7094660  65.5108070
  53.0709340   9.4706540  64.5925250  52.9867660   8.8779200  65.9830150
  46.8063020  13.4122660  64.0802880  47.3207690  13.3230670  64.8825310
  45.9632100  13.7582360  64.3730790  41.2605800  13.4776530  55.2858500
  41.0848280  12.5612070  55.0726300  40.4061540  13.8363820  55.5256300
  48.4843550  11.2065560  52.0684880  47.7908710  11.2042850  51.4087160
  49.2266410  10.7824880  51.6379050  35.7996030   8.6044730  63.3024110
  35.9627070   8.1350090  62.4843480  36.2648480   8.0968290  63.9672950
  49.8589120   1.8227960  65.0716660  49.0082710   1.5233710  65.3925730
  49.6990910   2.0669970  64.1600480  46.9538830   3.3229710  67.1715450
  47.2792240   2.4893460  66.8317680  47.7419160   3.8458230  67.3193780
  40.3629020   2.8584060  56.0665930  40.1369940   2.6421230  56.9712550
  39.5821550   3.2912520  55.7211900  47.5926780   2.8647430  54.6656580
  46.9935670   3.5883230  54.4820200  48.1406390   2.8024210  53.8833030
  42.8028230   3.7569640  66.7326200  42.7071830   2.8164370  66.5826600
  43.6460210   3.9784710  66.3374270  35.4226050   2.0331890  50.1292780
  35.3400720   2.9762650  50.2707770  35.0709110   1.8906800  49.2505130
  46.7846790   4.0916720  60.7910640  46.0527910   4.6003530  61.1400740
  46.3871130   3.2746700  60.4899420  43.2844330   1.7683000  52.1869890
  43.4057150   1.7269480  53.1355710  42.8992840   2.6307150  52.0316620
  42.2965830   4.0784140  51.5853190  41.7282730   3.6302390  50.9589100
  43.0054830   4.4376920  51.0518340  37.3735010   7.9796160  65.4619920
  36.9889800   7.3389830  66.0602880  37.6847200   8.6832280  66.0314650
  43.5232150   4.8272700  60.9428540  43.8902280   4.3531270  61.6889880
  43.3337210   5.7014270  61.2836880  41.3131520   3.8681340  63.2612750
  41.0088590   4.7473320  63.4863110  42.2677980   3.9281130  63.2970190
  39.8413310   8.0742330  53.8579600  39.0675570   7.5339950  53.6978320
  40.5707940   7.5548940  53.5197360  50.6001290   7.0707690  59.6505990
  51.3200410   7.5662980  59.2602100  50.3983110   6.3925580  59.0059860
  45.9820090   7.1416750  65.5374990  45.9157400   6.2212420  65.2832580
  45.3525230   7.2392190  66.2519630  48.7759620   2.8365300  52.0897540
  49.6639240   3.1482530  51.9148880  48.7464710   1.9637550  51.6978120
  39.8850710   7.7422710  57.4958410  40.4029380   6.9390970  57.4415300
  39.4334730   7.6801850  58.3375240  44.7720210   9.0088990  52.7685710
  45.1135910   9.7531220  52.2729030  43.9432920   9.3220110  53.1310540
  37.3695250   4.7084080  64.4084110  37.0110190   5.3737930  64.9957450
  37.0749810   3.8767630  64.7796730  40.5708370   5.1668320  67.2923660
  40.2708510   5.3125500  66.3951480  41.3419610   4.6073610  67.1997050
  45.9136820   9.9637320  65.2878790  45.9281360   9.0318280  65.0697700
  45.2061920  10.0497080  65.9268560  51.0473890   4.1477140  51.5577400
  50.9637610   4.5791360  50.7073840  51.7668080   4.6075490  51.9904220
  52.1248030   6.6044660  64.6347370  51.3996220   7.1973440  64.4376760
  52.6523490   6.5968200  63.8360740  52.0761140  11.0019400  54.2859530
  51.4337300  10.3475020  54.5603250  51.6891800  11.4074490  53.5100200
  47.6547620   8.3304830  58.1331220  48.0071440   7.7332960  57.4732590
  46.7709950   8.0049060  58.3039470  43.7410900   9.0902520  55.5401630
  44.4282030   9.6371730  55.9209220  42.9543320   9.6343250  55.5751240
  35.8803300   4.7075340  51.0318710  36.7498150   4.9900140  51.3154630
  35.3893620   5.5211210  50.9167520  43.0438110   6.0948550  55.1526990
  43.5000890   6.9053800  55.3787180  42.6926320   5.7771690  55.9845480
  45.3470720  11.6054890  62.3819290  45.9912940  11.8114270  63.0592710
  45.7100160  10.8443290  61.9290140  46.6202800   9.6087240  61.0996740
  47.2625030   8.9080400  61.2128910  47.1452150  10.3885680  60.9193630
  50.4658520   9.8935860  50.8235880  50.2396100   9.1766300  51.4160520
  50.0754720   9.6448300  49.9857630  48.3940420  10.4082140  64.3032800
  48.7296660  10.9948830  64.9810720  47.4740760  10.2774850  64.5330590
  36.2474550  13.9202720  51.5980340  36.6072190  14.5192060  50.9437610
  36.1066890  14.4662610  52.3715370  50.0474770   7.8107800  52.4850040
  49.7596470   8.2720490  53.2727920  50.8426940   7.3505570  52.7534260
  36.2316410  12.1857580  66.0722740  36.3407530  11.2452320  65.9318130
  35.5796970  12.4512330  65.4236470  44.2229000  10.4573470  67.4720860
  43.9025870   9.7382710  68.0166550  43.5487360  11.1328540  67.5456920
  42.2643170  11.3033920  52.4154010  42.2553270  12.0363610  51.7998520
  41.3441530  11.0565500  52.5080970  37.8649810   6.5248810  53.1600770
  37.2577760   7.2647710  53.1696070  38.3399160   6.6148170  52.3338970
  45.2502770  11.3662160  51.0779200  45.3514750  11.1626150  50.1481180
  44.3504510  11.1120440  51.2826980  44.3984590   3.3439220  63.0595630
  44.8969840   3.8185040  63.7247480  44.5407540   2.4202740  63.2665660
  43.8920880  13.8848480  55.7726870  44.1462380  13.8469870  54.8506240
  42.9433360  13.7581810  55.7655120  49.8973460   4.8040360  57.3485380
  48.9563600   4.8190590  57.5233070  50.2117530   4.0176320  57.7945680
  39.8755100   6.4859960  50.9089340  40.6418370   6.3741320  51.4714770
  39.9529790   5.7897930  50.2566110  38.5701860   3.9185030  51.5922230
  38.6505450   2.9712540  51.7039630  39.4621610   4.2491910  51.6982890
  51.8999040  11.9749210  59.0239640  52.0246460  12.7980380  59.4963450
  52.7664600  11.7639940  58.6763790  39.3716570  14.0680420  58.6956770
  40.1079050  13.5195880  58.9665340  39.7557490  14.9336430  58.5562760
  36.2562050  10.1353990  54.5698280  35.3301830  10.3775130  54.5603690
  36.7218480  10.9628250  54.4483030  38.3774850  13.2526490  67.8842350
  39.1787580  13.5738540  68.2977750  37.8626670  12.8922070  68.6062260
  42.4818880  13.2410730  50.5182340  43.2747490  13.5299560  50.0664130
  41.9623230  12.8102900  49.8394820  47.2139480   9.3606360  67.8317760
  46.6077640   9.3837960  67.0913510  46.9093590   8.6289400  68.3685010
  48.6439850  13.0886650  66.4427170  49.5961600  13.0044670  66.3927410
  48.4968070  13.7528360  67.1160960  51.5349050  12.4680860  51.9419080
  51.2490560  12.0546000  51.1273260  51.3368600  13.3968570  51.8219600
  36.0972660   5.7399950  66.8278400  36.6011680   5.1607230  67.3994630
  35.3580080   6.0240180  67.3654770  42.9996280   8.4614140  50.3824690
  42.8946920   7.8466490  51.1086070  42.8320500   7.9380030  49.5987700
  43.1510600   7.1470940  66.3613920  42.3856270   7.7155940  66.2768590
  43.3326560   6.8547150  65.4682150  46.2399010   7.5234170  50.9866680
  45.6909110   7.9703470  51.6309420  46.8618270   7.0183420  51.5104350
  50.2933950   8.8776270  66.9188940  51.0343420   9.2152030  66.4156400
  49.5306630   9.0468330  66.3658710  38.1295740   3.8829540  67.7228470
  38.1701080   3.5843410  68.6313700  38.9841240   4.2837150  67.5635990
  41.9074130   6.4825090  52.8831980  42.3290550   6.3164960  53.7263370
  42.0324970   5.6725320  52.3887120  40.0701550   2.4621640  65.6902960
  39.5398010   1.9712590  65.0626300  40.7389620   2.8905840  65.1560890
  44.4201770   5.5062700  50.1309080  44.9407430   4.7911720  49.7650230
  45.0670170   6.1448570  50.4309590  48.9679610   6.9291100  65.4544150
  49.3820630   7.0836180  66.3034570  48.0330610   7.0546320  65.6169930
  49.4401780   4.2687260  67.4583300  50.0222550   3.5139580  67.3703780
  49.6163550   4.7994700  66.6814780  43.7294840   6.8811580  63.4240080
  44.1482950   7.7244310  63.2516320  42.8103470   7.0183620  63.1946860
  46.0658740   4.6127760  64.8077920  46.1854950   4.0168900  65.5472760
  46.9252740   4.6497450  64.3879220  48.4046640   5.1664950  63.3840430
  47.8781860   5.6907570  62.7805570  48.7477980   5.7992340  64.0150160
  40.8033030   2.5558320  49.8290140  40.6022090   1.6925680  50.1903480
  40.6325080   2.4691680  48.8911740  41.5802260  13.1864590  64.5397810
  41.0423350  13.9110650  64.2206510  41.8336220  12.7094930  63.7495150
  44.4364470  14.4215800  64.7984460  44.3623170  15.3250940  65.1056830
  43.5343310  14.1027700  64.7706530  44.9849800  13.5874310  52.4210820
  45.8800590  13.9259280  52.4429580  45.0167430  12.8653720  51.7935100
  38.6245960   8.9601360  50.6497820  39.0620830   9.5031030  51.3055400
  39.1093690   8.1348310  50.6594160  35.8391760  11.7490390  58.1018080
  36.1694770  10.8811450  57.8696720  36.2682760  11.9548910  58.9323040
  40.4353680  10.0799400  55.7620050  40.1349220   9.9564370  56.6623960
  40.3291170   9.2207990  55.3535780  36.3281970  12.6160980  60.8399710
  35.8912960  12.7961780  61.6723860  36.8959650  13.3735600  60.6981430
  51.9644150  12.1177980  65.1277020  51.3646140  12.1770540  64.3840940
  52.0938050  11.1782960  65.2573870  53.2045600   9.8595800  50.4646730
  52.3738560   9.9272450  50.9353960  53.3817430  10.7499920  50.1613590
  52.6602060   6.6043280  52.9680930  53.4220970   7.1739930  53.0740620
  52.6756430   6.0370480  53.7389240  36.1606400   5.1281210  57.1988590
  35.5055240   4.8592850  56.5548290  36.9984350   5.0185690  56.7490570
  53.6662030   7.4593380  57.8122860  54.0370860   6.6760700  57.4058830
  54.3063960   8.1482480  57.6340160  50.6495790   8.8429960  63.2253180
  49.8355630   9.2727120  63.4878970  51.0569990   9.4548370  62.6122230
  52.7121230   6.8977650  50.1253450  52.9870070   7.8056530  49.9972670
  52.5231970   6.8340180  51.0615440  52.6086570   4.8346640  55.1182880
  52.2330170   4.0674570  54.6864170  51.8789690   5.2169340  55.6057810
  37.1982330   5.5133780  61.7391930  37.5655370   5.4261180  62.6187950
  36.6293150   4.7500330  61.6398790  51.9986190   3.9818160  64.7522400
  51.7672280   3.7530910  63.8520350  52.2590740   4.9017710  64.7067290
  36.7498330   2.4242870  65.6450350  35.8554380   2.3909630  65.9844060
  37.2895880   2.6229660  66.4101600  35.3744480   2.3380140  53.1413920
  34.4708560   2.6010340  52.9665580  35.8585100   2.6091310  52.3613880
  51.8837530   3.0604130  58.4190120  52.4075010   2.5666780  57.7880290
  52.4696950   3.1954490  59.1637690  52.0627250   3.1444000  61.9409670
  51.1129960   3.1107540  62.0554660  52.2440260   4.0544110  61.7059440
  51.3737500   2.3177480  54.3582530  51.8696620   2.0848350  55.1431410
  51.1753570   1.4789320  53.9420170  38.6134410  10.0266470  66.9012080
  38.5704040   9.6559380  67.7826540  38.7445420  10.9644040  67.0413900
  42.3140440  11.5826060  62.5021800  42.0731800  11.8500620  61.6152320
  43.2543080  11.7531790  62.5572660  53.5744600  13.6020440  63.3032440
  53.0802880  13.9989310  62.5859570  52.9657890  12.9769650  63.6969720
  38.4522440  12.9728720  64.0209860  37.8582760  12.8413420  64.7599900
  38.4446280  12.1366860  63.5551960  51.2584050  14.2443860  60.5819180
  50.7987020  14.9959670  60.2077200  50.6296510  13.5250330  60.5233980
  38.0834670  10.3387100  62.9717900  37.3568730   9.7192390  62.9043850
  38.1443820  10.7327710  62.1015980  41.6879770  12.5532100  59.7567310
  42.2044790  11.9419460  59.2315570  42.3377150  13.0560880  60.2478320
  44.4275270  13.4440590  60.5836290  44.7153080  13.1894890  59.7069300
  44.9398490  12.8917950  61.1741860  36.3664670  13.6561490  56.1814660
  36.1986710  13.0232170  56.8796550  35.4999180  13.8620890  55.8308850
  37.9727370  12.3494720  53.6264800  37.4474990  12.7302750  52.9226760
  37.8971950  12.9745490  54.3474510  44.4947630  14.3656690  67.9504490
  45.4214940  14.1300960  67.9940450  44.4798060  15.1928690  67.4690520
  40.5720340  14.2977100  52.5014050  41.3039160  14.0136380  51.9537940
  40.8314010  14.0590380  53.3913430  39.7335130  10.4141830  52.5060380
  39.1044010  10.8826930  53.0546210  39.8482960   9.5691050  52.9406570
  51.0625190  13.5926550  67.7745530  51.8550510  13.0975780  67.5671490
  51.3558340  14.2716690  68.3821140  47.1884850   4.4647490  38.6561580
  47.1078900   3.5502100  38.3853290  46.7749270   4.9614560  37.9501290
  45.3202890   6.2426510  40.5370850  44.5444990   5.7626950  40.8269420
  45.9715820   5.5632160  40.3627010  39.3368720   6.5546320  41.4146610
  38.5053600   6.2995030  41.8143120  39.9449700   6.6257090  42.1504530
  49.3410320  10.6486700  39.3169980  48.8791850   9.8773940  39.6457150
  50.1535870  10.6752770  39.8222430  39.3169980  10.5886410  41.6104630
  39.6198020   9.6984150  41.4314850  40.0613570  11.1456630  41.3826880
  35.7093680   4.1153860  41.0828700  36.2809790   3.3476060  41.0832340
  35.7095220   4.4142620  40.1735310  45.5673630  12.9344710  38.9373970
  44.9485070  13.3902210  38.3668410  46.4225410  13.0896170  38.5363670
  44.7611880   8.9183700  40.5441010  44.6920160   7.9773640  40.3830140
  45.5231740   9.0085110  41.1163580  41.7629790   3.0666080  40.5652560
  42.2708010   3.5647050  41.2057580  42.2943030   2.2901280  40.3891920
  46.4336980   7.8183950  36.3305880  45.8154250   8.2833400  35.7668600
  46.9460230   8.5111430  36.7475390  41.2968740   7.3459820  43.0089480
  40.9638120   7.9728740  43.6510550  41.4735420   7.8721700  42.2291150
  40.5087840   9.3140620  44.8238660  41.1261840   9.9891700  44.5423110
  39.6480960   9.7228600  44.7326160  35.8020180   8.5040480  33.7045510
  35.4248160   8.9927580  32.9730410  36.0593250   9.1765760  34.3352040
  51.4265430  10.7780030  42.7393300  50.7428950  11.4479140  42.7309970
  51.9659720  10.9760680  41.9738160  48.9624170  12.6224160  41.4538480
  48.9751330  12.2186450  40.5860740  48.4099390  13.3971450  41.3499910
  50.2569590   9.3440380  36.5428650  50.1465920   8.4014710  36.6678070
  50.2537840   9.7056020  37.4291410  48.3609610   7.5254000  42.7821090
  48.7778400   7.3114110  41.9474550  49.0849430   7.7826790  43.3529710
  45.7989870   4.9705700  35.8991140  44.8719150   4.9043080  36.1279610
  45.9514690   5.9085830  35.7846380  52.3071710   5.9241220  42.8737330
  51.4790340   5.9934310  42.3987460  52.9022190   6.5095530  42.4053160
  49.8287160   6.5326000  36.4026390  49.2099580   6.1945550  35.7552690
  49.8111610   5.8885760  37.1105580  49.2713720   2.7110540  43.8192200
  48.8584900   3.5364250  44.0732190  48.5389670   2.1255580  43.6268560
  41.4046510   5.4970440  38.6810870  41.0003510   4.7847690  38.1856770
  41.4909630   5.1523680  39.5698910  41.8728210   9.1838000  40.8450080
  41.5756500   8.5783470  40.1657860  42.8228030   9.2215310  40.7339440
  40.1175130   2.2713650  42.4609910  40.6689720   2.3808990  41.6863160
  40.6318640   2.6451250  43.1765140  49.9613820  12.7569870  44.5073180
  49.4844380  13.5642060  44.3145790  49.2775610  12.1048200  44.6599390
  40.9646640   8.9219690  47.4957880  40.0675170   9.1459660  47.7431280
  40.9899510   9.0454630  46.5469280  48.0051860   5.7712810  33.4099140
  48.4445140   4.9335240  33.2636960  48.7180280   6.4042210  33.4963280
  39.7917860   5.7933010  46.0715250  39.6525630   6.6655810  46.4402650
  38.9099220   5.4505820  45.9263190  46.1147240  10.7108880  37.3780380
  46.5543150  11.4533210  36.9635770  46.0534130  10.9535450  38.3019340
  41.5898210  11.7354710  48.2800400  41.5613640  12.1397660  47.4128830
  41.4263180  10.8065070  48.1172000  38.1051140   4.3915420  36.1817520
  37.9848740   5.1177510  35.5698790  37.7952030   3.6218330  35.7045430
  53.5413030  12.5181810  49.5764570  54.0172750  12.9964700  50.2553650
  54.1620190  12.4499300  48.8510070  35.7436510   7.5630560  41.9886160
  35.8216930   7.6979330  41.0441880  36.3578190   6.8546450  42.1814280
  36.9884140   9.2630750  38.3992340  36.5812220   9.4045340  37.5445940
  37.8797150   8.9790910  38.1963550  52.9446280   9.7094660  46.7364580
  53.0709340   9.4706540  45.8181760  52.9867660   8.8779200  47.2086660
  46.8063020  13.4122660  45.3059390  47.3207690  13.3230670  46.1081820
  45.9632100  13.7582360  45.5987300  48.7817420  13.6978000  34.7343390
  48.6218560  13.4080940  35.6325220  48.6164130  12.9218130  34.1988620
  41.2605800  13.4776530  36.5115010  41.0848280  12.5612070  36.2982810
  40.4061540  13.8363820  36.7512810  48.4843550  11.2065560  33.2941390
  47.7908710  11.2042850  32.6343670  49.2266410  10.7824880  32.8635560
  48.0493480  12.8328270  37.3689880  48.5050430  12.0517650  37.6828500
  48.3886000  13.5435090  37.9131060  35.7996030   8.6044730  44.5280620
  35.9627070   8.1350090  43.7099990  36.2648480   8.0968290  45.1929460
  49.8589120   1.8227960  46.2973170  49.0082710   1.5233710  46.6182240
  49.6990910   2.0669970  45.3856990  46.9538830   3.3229710  48.3971960
  47.2792240   2.4893460  48.0574190  47.7419160   3.8458230  48.5450290
  40.3629020   2.8584060  37.2922440  40.1369940   2.6421230  38.1969060
  39.5821550   3.2912520  36.9468410  47.5926780   2.8647430  35.8913090
  46.9935670   3.5883230  35.7076710  48.1406390   2.8024210  35.1089540
  42.8028230   3.7569640  47.9582710  42.7071830   2.8164370  47.8083110
  43.6460210   3.9784710  47.5630780  35.4226050   2.0331890  31.3549290
  35.3400720   2.9762650  31.4964280  35.0709110   1.8906800  30.4761640
  46.7846790   4.0916720  42.0167150  46.0527910   4.6003530  42.3657250
  46.3871130   3.2746700  41.7155930  43.2844330   1.7683000  33.4126400
  43.4057150   1.7269480  34.3612220  42.8992840   2.6307150  33.2573130
  42.2965830   4.0784140  32.8109700  41.7282730   3.6302390  32.1845610
  43.0054830   4.4376920  32.2774850  37.3735010   7.9796160  46.6876430
  36.9889800   7.3389830  47.2859390  37.6847200   8.6832280  47.2571160
  43.5232150   4.8272700  42.1685050  43.8902280   4.3531270  42.9146390
  43.3337210   5.7014270  42.5093390  41.3131520   3.8681340  44.4869260
  41.0088590   4.7473320  44.7119620  42.2677980   3.9281130  44.5226700
  39.8413310   8.0742330  35.0836110  39.0675570   7.5339950  34.9234830
  40.5707940   7.5548940  34.7453870  50.6001290   7.0707690  40.8762500
  51.3200410   7.5662980  40.4858610  50.3983110   6.3925580  40.2316370
  45.9820090   7.1416750  46.7631500  45.9157400   6.2212420  46.5089090
  45.3525230   7.2392190  47.4776140  48.7759620   2.8365300  33.3154050
  49.6639240   3.1482530  33.1405390  48.7464710   1.9637550  32.9234630
  39.8850710   7.7422710  38.7214920  40.4029380   6.9390970  38.6671810
  39.4334730   7.6801850  39.5631750  44.7720210   9.0088990  33.9942220
  45.1135910   9.7531220  33.4985540  43.9432920   9.3220110  34.3567050
  37.3695250   4.7084080  45.6340620  37.0110190   5.3737930  46.2213960
  37.0749810   3.8767630  46.0053240  40.5708370   5.1668320  48.5180170
  40.2708510   5.3125500  47.6207990  41.3419610   4.6073610  48.4253560
  45.9136820   9.9637320  46.5135300  45.9281360   9.0318280  46.2954210
  45.2061920  10.0497080  47.1525070  51.0473890   4.1477140  32.7833910
  50.9637610   4.5791360  31.9330350  51.7668080   4.6075490  33.2160730
  52.1248030   6.6044660  45.8603880  51.3996220   7.1973440  45.6633270
  52.6523490   6.5968200  45.0617250  52.0761140  11.0019400  35.5116040
  51.4337300  10.3475020  35.7859760  51.6891800  11.4074490  34.7356710
  47.6547620   8.3304830  39.3587730  48.0071440   7.7332960  38.6989100
  46.7709950   8.0049060  39.5295980  43.7410900   9.0902520  36.7658140
  44.4282030   9.6371730  37.1465730  42.9543320   9.6343250  36.8007750
  35.8803300   4.7075340  32.2575220  36.7498150   4.9900140  32.5411140
  35.3893620   5.5211210  32.1424030  43.0438110   6.0948550  36.3783500
  43.5000890   6.9053800  36.6043690  42.6926320   5.7771690  37.2101990
  45.3470720  11.6054890  43.6075800  45.9912940  11.8114270  44.2849220
  45.7100160  10.8443290  43.1546650  46.6202800   9.6087240  42.3253250
  47.2625030   8.9080400  42.4385420  47.1452150  10.3885680  42.1450140
  50.4658520   9.8935860  32.0492390  50.2396100   9.1766300  32.6417030
  50.0754720   9.6448300  31.2114140  48.3940420  10.4082140  45.5289310
  48.7296660  10.9948830  46.2067230  47.4740760  10.2774850  45.7587100
  36.2474550  13.9202720  32.8236850  36.6072190  14.5192060  32.1694120
  36.1066890  14.4662610  33.5971880  50.0474770   7.8107800  33.7106550
  49.7596470   8.2720490  34.4984430  50.8426940   7.3505570  33.9790770
  36.2316410  12.1857580  47.2979250  36.3407530  11.2452320  47.1574640
  35.5796970  12.4512330  46.6492980  44.2229000  10.4573470  48.6977370
  43.9025870   9.7382710  49.2423060  43.5487360  11.1328540  48.7713430
  42.2643170  11.3033920  33.6410520  42.2553270  12.0363610  33.0255030
  41.3441530  11.0565500  33.7337480  37.8649810   6.5248810  34.3857280
  37.2577760   7.2647710  34.3952580  38.3399160   6.6148170  33.5595480
  45.2502770  11.3662160  32.3035710  45.3514750  11.1626150  31.3737690
  44.3504510  11.1120440  32.5083490  44.3984590   3.3439220  44.2852140
  44.8969840   3.8185040  44.9503990  44.5407540   2.4202740  44.4922170
  43.8920880  13.8848480  36.9983380  44.1462380  13.8469870  36.0762750
  42.9433360  13.7581810  36.9911630  49.8973460   4.8040360  38.5741890
  48.9563600   4.8190590  38.7489580  50.2117530   4.0176320  39.0202190
  39.8755100   6.4859960  32.1345850  40.6418370   6.3741320  32.6971280
  39.9529790   5.7897930  31.4822620  38.5701860   3.9185030  32.8178740
  38.6505450   2.9712540  32.9296140  39.4621610   4.2491910  32.9239400
  51.8999040  11.9749210  40.2496150  52.0246460  12.7980380  40.7219960
  52.7664600  11.7639940  39.9020300  39.3716570  14.0680420  39.9213280
  40.1079050  13.5195880  40.1921850  39.7557490  14.9336430  39.7819270
  36.2562050  10.1353990  35.7954790  35.3301830  10.3775130  35.7860200
  36.7218480  10.9628250  35.6739540  42.4818880  13.2410730  31.7438850
  43.2747490  13.5299560  31.2920640  41.9623230  12.8102900  31.0651330
  47.2139480   9.3606360  49.0574270  46.6077640   9.3837960  48.3170020
  46.9093590   8.6289400  49.5941520  51.5349050  12.4680860  33.1675590
  51.2490560  12.0546000  32.3529770  51.3368600  13.3968570  33.0476110
  36.0972660   5.7399950  48.0534910  36.6011680   5.1607230  48.6251140
  35.3580080   6.0240180  48.5911280  42.9996280   8.4614140  31.6081200
  42.8946920   7.8466490  32.3342580  42.8320500   7.9380030  30.8244210
  43.1510600   7.1470940  47.5870430  42.3856270   7.7155940  47.5025100
  43.3326560   6.8547150  46.6938660  46.2399010   7.5234170  32.2123190
  45.6909110   7.9703470  32.8565930  46.8618270   7.0183420  32.7360860
  50.2933950   8.8776270  48.1445450  51.0343420   9.2152030  47.6412910
  49.5306630   9.0468330  47.5915220  38.1295740   3.8829540  48.9484980
  38.1701080   3.5843410  49.8570210  38.9841240   4.2837150  48.7892500
  41.9074130   6.4825090  34.1088490  42.3290550   6.3164960  34.9519880
  42.0324970   5.6725320  33.6143630  40.0701550   2.4621640  46.9159470
  39.5398010   1.9712590  46.2882810  40.7389620   2.8905840  46.3817400
  44.4201770   5.5062700  31.3565590  44.9407430   4.7911720  30.9906740
  45.0670170   6.1448570  31.6566100  48.9679610   6.9291100  46.6800660
  49.3820630   7.0836180  47.5291080  48.0330610   7.0546320  46.8426440
  49.4401780   4.2687260  48.6839810  50.0222550   3.5139580  48.5960290
  49.6163550   4.7994700  47.9071290  43.7294840   6.8811580  44.6496590
  44.1482950   7.7244310  44.4772830  42.8103470   7.0183620  44.4203370
  46.0658740   4.6127760  46.0334430  46.1854950   4.0168900  46.7729270
  46.9252740   4.6497450  45.6135730  48.4046640   5.1664950  44.6096940
  47.8781860   5.6907570  44.0062080  48.7477980   5.7992340  45.2406670
  40.8033030   2.5558320  31.0546650  40.6022090   1.6925680  31.4159990
  40.6325080   2.4691680  30.1168250  44.4364470  14.4215800  46.0240970
  44.3623170  15.3250940  46.3313340  43.5343310  14.1027700  45.9963040
  44.9849800  13.5874310  33.6467330  45.8800590  13.9259280  33.6686090
  45.0167430  12.8653720  33.0191610  38.6245960   8.9601360  31.8754330
  39.0620830   9.5031030  32.5311910  39.1093690   8.1348310  31.8850670
  35.8391760  11.7490390  39.3274590  36.1694770  10.8811450  39.0953230
  36.2682760  11.9548910  40.1579550  40.4353680  10.0799400  36.9876560
  40.1349220   9.9564370  37.8880470  40.3291170   9.2207990  36.5792290
  36.3281970  12.6160980  42.0656220  35.8912960  12.7961780  42.8980370
  36.8959650  13.3735600  41.9237940  51.9644150  12.1177980  46.3533530
  51.3646140  12.1770540  45.6097450  52.0938050  11.1782960  46.4830380
  53.2045600   9.8595800  31.6903240  52.3738560   9.9272450  32.1610470
  53.3817430  10.7499920  31.3870100  52.6602060   6.6043280  34.1937440
  53.4220970   7.1739930  34.2997130  52.6756430   6.0370480  34.9645750
  36.1606400   5.1281210  38.4245100  35.5055240   4.8592850  37.7804800
  36.9984350   5.0185690  37.9747080  53.6662030   7.4593380  39.0379370
  54.0370860   6.6760700  38.6315340  54.3063960   8.1482480  38.8596670
  50.6495790   8.8429960  44.4509690  49.8355630   9.2727120  44.7135480
  51.0569990   9.4548370  43.8378740  52.7121230   6.8977650  31.3509960
  52.9870070   7.8056530  31.2229180  52.5231970   6.8340180  32.2871950
  52.6086570   4.8346640  36.3439390  52.2330170   4.0674570  35.9120680
  51.8789690   5.2169340  36.8314320  37.1982330   5.5133780  42.9648440
  37.5655370   5.4261180  43.8444460  36.6293150   4.7500330  42.8655300
  51.9986190   3.9818160  45.9778910  51.7672280   3.7530910  45.0776860
  52.2590740   4.9017710  45.9323800  36.7498330   2.4242870  46.8706860
  35.8554380   2.3909630  47.2100570  37.2895880   2.6229660  47.6358110
  35.3744480   2.3380140  34.3670430  34.4708560   2.6010340  34.1922090
  35.8585100   2.6091310  33.5870390  51.8837530   3.0604130  39.6446630
  52.4075010   2.5666780  39.0136800  52.4696950   3.1954490  40.3894200
  52.0627250   3.1444000  43.1666180  51.1129960   3.1107540  43.2811170
  52.2440260   4.0544110  42.9315950  51.3737500   2.3177480  35.5839040
  51.8696620   2.0848350  36.3687920  51.1753570   1.4789320  35.1676680
  50.7071840  13.5948560  37.9777960  51.3030910  13.2733130  37.3012380
  50.9649990  13.1220380  38.7691230  38.6134410  10.0266470  48.1268590
  38.5704040   9.6559380  49.0083050  38.7445420  10.9644040  48.2670410
  42.3140440  11.5826060  43.7278310  42.0731800  11.8500620  42.8408830
  43.2543080  11.7531790  43.7829170  53.5744600  13.6020440  44.5288950
  53.0802880  13.9989310  43.8116080  52.9657890  12.9769650  44.9226230
  38.4522440  12.9728720  45.2466370  37.8582760  12.8413420  45.9856410
  38.4446280  12.1366860  44.7808470  51.2584050  14.2443860  41.8075690
  50.7987020  14.9959670  41.4333710  50.6296510  13.5250330  41.7490490
  38.0834670  10.3387100  44.1974410  37.3568730   9.7192390  44.1300360
  38.1443820  10.7327710  43.3272490  41.6879770  12.5532100  40.9823820
  42.2044790  11.9419460  40.4572080  42.3377150  13.0560880  41.4734830
  44.4275270  13.4440590  41.8092800  44.7153080  13.1894890  40.9325810
  44.9398490  12.8917950  42.3998370  36.3664670  13.6561490  37.4071170
  36.1986710  13.0232170  38.1053060  35.4999180  13.8620890  37.0565360
  37.9727370  12.3494720  34.8521310  37.4474990  12.7302750  34.1483270
  37.8971950  12.9745490  35.5731020  52.7292690  13.9082260  36.1735250
  52.9044880  13.2220000  35.5296170  52.0314260  14.4329310  35.7811920
  40.5720340  14.2977100  33.7270560  41.3039160  14.0136380  33.1794450
  40.8314010  14.0590380  34.6169940  39.7335130  10.4141830  33.7316890
  39.1044010  10.8826930  34.2802720  39.8482960   9.5691050  34.1663080
  47.1884850   4.4647490  19.8818090  47.1078900   3.5502100  19.6109800
  46.7749270   4.9614560  19.1757800  45.3202890   6.2426510  21.7627360
  44.5444990   5.7626950  22.0525930  45.9715820   5.5632160  21.5883520
  39.3368720   6.5546320  22.6403120  38.5053600   6.2995030  23.0399630
  39.9449700   6.6257090  23.3761040  49.3410320  10.6486700  20.5426490
  48.8791850   9.8773940  20.8713660  50.1535870  10.6752770  21.0478940
  39.3169980  10.5886410  22.8361140  39.6198020   9.6984150  22.6571360
  40.0613570  11.1456630  22.6083390  35.7093680   4.1153860  22.3085210
  36.2809790   3.3476060  22.3088850  35.7095220   4.4142620  21.3991820
  45.5673630  12.9344710  20.1630480  44.9485070  13.3902210  19.5924920
  46.4225410  13.0896170  19.7620180  44.7611880   8.9183700  21.7697520
  44.6920160   7.9773640  21.6086650  45.5231740   9.0085110  22.3420090
  41.7629790   3.0666080  21.7909070  42.2708010   3.5647050  22.4314090
  42.2943030   2.2901280  21.6148430  46.4336980   7.8183950  17.5562390
  45.8154250   8.2833400  16.9925110  46.9460230   8.5111430  17.9731900
  41.2968740   7.3459820  24.2345990  40.9638120   7.9728740  24.8767060
  41.4735420   7.8721700  23.4547660  40.5087840   9.3140620  26.0495170
  41.1261840   9.9891700  25.7679620  39.6480960   9.7228600  25.9582670
  35.8020180   8.5040480  14.9302020  35.4248160   8.9927580  14.1986920
  36.0593250   9.1765760  15.5608550  51.4265430  10.7780030  23.9649810
  50.7428950  11.4479140  23.9566480  51.9659720  10.9760680  23.1994670
  48.9624170  12.6224160  22.6794990  48.9751330  12.2186450  21.8117250
  48.4099390  13.3971450  22.5756420  50.2569590   9.3440380  17.7685160
  50.1465920   8.4014710  17.8934580  50.2537840   9.7056020  18.6547920
  48.3609610   7.5254000  24.0077600  48.7778400   7.3114110  23.1731060
  49.0849430   7.7826790  24.5786220  45.7989870   4.9705700  17.1247650
  44.8719150   4.9043080  17.3536120  45.9514690   5.9085830  17.0102890
  52.3071710   5.9241220  24.0993840  51.4790340   5.9934310  23.6243970
  52.9022190   6.5095530  23.6309670  49.8287160   6.5326000  17.6282900
  49.2099580   6.1945550  16.9809200  49.8111610   5.8885760  18.3362090
  49.2713720   2.7110540  25.0448710  48.8584900   3.5364250  25.2988700
  48.5389670   2.1255580  24.8525070  41.4046510   5.4970440  19.9067380
  41.0003510   4.7847690  19.4113280  41.4909630   5.1523680  20.7955420
  41.8728210   9.1838000  22.0706590  41.5756500   8.5783470  21.3914370
  42.8228030   9.2215310  21.9595950  40.1175130   2.2713650  23.6866420
  40.6689720   2.3808990  22.9119670  40.6318640   2.6451250  24.4021650
  49.9613820  12.7569870  25.7329690  49.4844380  13.5642060  25.5402300
  49.2775610  12.1048200  25.8855900  40.9646640   8.9219690  28.7214390
  40.0675170   9.1459660  28.9687790  40.9899510   9.0454630  27.7725790
  48.0051860   5.7712810  14.6355650  48.4445140   4.9335240  14.4893470
  48.7180280   6.4042210  14.7219790  39.7917860   5.7933010  27.2971760
  39.6525630   6.6655810  27.6659160  38.9099220   5.4505820  27.1519700
  46.1147240  10.7108880  18.6036890  46.5543150  11.4533210  18.1892280
  46.0534130  10.9535450  19.5275850  41.5898210  11.7354710  29.5056910
  41.5613640  12.1397660  28.6385340  41.4263180  10.8065070  29.3428510
  38.1051140   4.3915420  17.4074030  37.9848740   5.1177510  16.7955300
  37.7952030   3.6218330  16.9301940  53.5413030  12.5181810  30.8021080
  54.0172750  12.9964700  31.4810160  54.1620190  12.4499300  30.0766580
  35.7436510   7.5630560  23.2142670  35.8216930   7.6979330  22.2698390
  36.3578190   6.8546450  23.4070790  36.9884140   9.2630750  19.6248850
  36.5812220   9.4045340  18.7702450  37.8797150   8.9790910  19.4220060
  52.9446280   9.7094660  27.9621090  53.0709340   9.4706540  27.0438270
  52.9867660   8.8779200  28.4343170  46.8063020  13.4122660  26.5315900
  47.3207690  13.3230670  27.3338330  45.9632100  13.7582360  26.8243810
  48.7817420  13.6978000  15.9599900  48.6218560  13.4080940  16.8581730
  48.6164130  12.9218130  15.4245130  41.2605800  13.4776530  17.7371520
  41.0848280  12.5612070  17.5239320  40.4061540  13.8363820  17.9769320
  48.4843550  11.2065560  14.5197900  47.7908710  11.2042850  13.8600180
  49.2266410  10.7824880  14.0892070  48.0493480  12.8328270  18.5946390
  48.5050430  12.0517650  18.9085010  48.3886000  13.5435090  19.1387570
  35.7996030   8.6044730  25.7537130  35.9627070   8.1350090  24.9356500
  36.2648480   8.0968290  26.4185970  49.8589120   1.8227960  27.5229680
  49.0082710   1.5233710  27.8438750  49.6990910   2.0669970  26.6113500
  46.9538830   3.3229710  29.6228470  47.2792240   2.4893460  29.2830700
  47.7419160   3.8458230  29.7706800  40.3629020   2.8584060  18.5178950
  40.1369940   2.6421230  19.4225570  39.5821550   3.2912520  18.1724920
  47.5926780   2.8647430  17.1169600  46.9935670   3.5883230  16.9333220
  48.1406390   2.8024210  16.3346050  42.8028230   3.7569640  29.1839220
  42.7071830   2.8164370  29.0339620  43.6460210   3.9784710  28.7887290
  35.4226050   2.0331890  12.5805800  35.3400720   2.9762650  12.7220790
  35.0709110   1.8906800  11.7018150  46.7846790   4.0916720  23.2423660
  46.0527910   4.6003530  23.5913760  46.3871130   3.2746700  22.9412440
  43.2844330   1.7683000  14.6382910  43.4057150   1.7269480  15.5868730
  42.8992840   2.6307150  14.4829640  42.2965830   4.0784140  14.0366210
  41.7282730   3.6302390  13.4102120  43.0054830   4.4376920  13.5031360
  37.3735010   7.9796160  27.9132940  36.9889800   7.3389830  28.5115900
  37.6847200   8.6832280  28.4827670  43.5232150   4.8272700  23.3941560
  43.8902280   4.3531270  24.1402900  43.3337210   5.7014270  23.7349900
  41.3131520   3.8681340  25.7125770  41.0088590   4.7473320  25.9376130
  42.2677980   3.9281130  25.7483210  39.8413310   8.0742330  16.3092620
  39.0675570   7.5339950  16.1491340  40.5707940   7.5548940  15.9710380
  50.6001290   7.0707690  22.1019010  51.3200410   7.5662980  21.7115120
  50.3983110   6.3925580  21.4572880  45.9820090   7.1416750  27.9888010
  45.9157400   6.2212420  27.7345600  45.3525230   7.2392190  28.7032650
  48.7759620   2.8365300  14.5410560  49.6639240   3.1482530  14.3661900
  48.7464710   1.9637550  14.1491140  39.8850710   7.7422710  19.9471430
  40.4029380   6.9390970  19.8928320  39.4334730   7.6801850  20.7888260
  44.7720210   9.0088990  15.2198730  45.1135910   9.7531220  14.7242050
  43.9432920   9.3220110  15.5823560  37.3695250   4.7084080  26.8597130
  37.0110190   5.3737930  27.4470470  37.0749810   3.8767630  27.2309750
  40.5708370   5.1668320  29.7436680  40.2708510   5.3125500  28.8464500
  41.3419610   4.6073610  29.6510070  45.9136820   9.9637320  27.7391810
  45.9281360   9.0318280  27.5210720  45.2061920  10.0497080  28.3781580
  51.0473890   4.1477140  14.0090420  50.9637610   4.5791360  13.1586860
  51.7668080   4.6075490  14.4417240  52.1248030   6.6044660  27.0860390
  51.3996220   7.1973440  26.8889780  52.6523490   6.5968200  26.2873760
  52.0761140  11.0019400  16.7372550  51.4337300  10.3475020  17.0116270
  51.6891800  11.4074490  15.9613220  47.6547620   8.3304830  20.5844240
  48.0071440   7.7332960  19.9245610  46.7709950   8.0049060  20.7552490
  43.7410900   9.0902520  17.9914650  44.4282030   9.6371730  18.3722240
  42.9543320   9.6343250  18.0264260  35.8803300   4.7075340  13.4831730
  36.7498150   4.9900140  13.7667650  35.3893620   5.5211210  13.3680540
  43.0438110   6.0948550  17.6040010  43.5000890   6.9053800  17.8300200
  42.6926320   5.7771690  18.4358500  45.3470720  11.6054890  24.8332310
  45.9912940  11.8114270  25.5105730  45.7100160  10.8443290  24.3803160
  46.6202800   9.6087240  23.5509760  47.2625030   8.9080400  23.6641930
  47.1452150  10.3885680  23.3706650  50.4658520   9.8935860  13.2748900
  50.2396100   9.1766300  13.8673540  50.0754720   9.6448300  12.4370650
  48.3940420  10.4082140  26.7545820  48.7296660  10.9948830  27.4323740
  47.4740760  10.2774850  26.9843610  36.2474550  13.9202720  14.0493360
  36.6072190  14.5192060  13.3950630  36.1066890  14.4662610  14.8228390
  50.0474770   7.8107800  14.9363060  49.7596470   8.2720490  15.7240940
  50.8426940   7.3505570  15.2047280  36.2316410  12.1857580  28.5235760
  36.3407530  11.2452320  28.3831150  35.5796970  12.4512330  27.8749490
  44.2229000  10.4573470  29.9233880  43.9025870   9.7382710  30.4679570
  43.5487360  11.1328540  29.9969940  42.2643170  11.3033920  14.8667030
  42.2553270  12.0363610  14.2511540  41.3441530  11.0565500  14.9593990
  37.8649810   6.5248810  15.6113790  37.2577760   7.2647710  15.6209090
  38.3399160   6.6148170  14.7851990  45.2502770  11.3662160  13.5292220
  45.3514750  11.1626150  12.5994200  44.3504510  11.1120440  13.7340000
  44.3984590   3.3439220  25.5108650  44.8969840   3.8185040  26.1760500
  44.5407540   2.4202740  25.7178680  43.8920880  13.8848480  18.2239890
  44.1462380  13.8469870  17.3019260  42.9433360  13.7581810  18.2168140
  49.8973460   4.8040360  19.7998400  48.9563600   4.8190590  19.9746090
  50.2117530   4.0176320  20.2458700  39.8755100   6.4859960  13.3602360
  40.6418370   6.3741320  13.9227790  39.9529790   5.7897930  12.7079130
  38.5701860   3.9185030  14.0435250  38.6505450   2.9712540  14.1552650
  39.4621610   4.2491910  14.1495910  51.8999040  11.9749210  21.4752660
  52.0246460  12.7980380  21.9476470  52.7664600  11.7639940  21.1276810
  39.3716570  14.0680420  21.1469790  40.1079050  13.5195880  21.4178360
  39.7557490  14.9336430  21.0075780  36.2562050  10.1353990  17.0211300
  35.3301830  10.3775130  17.0116710  36.7218480  10.9628250  16.8996050
  38.3774850  13.2526490  30.3355370  39.1787580  13.5738540  30.7490770
  37.8626670  12.8922070  31.0575280  42.4818880  13.2410730  12.9695360
  43.2747490  13.5299560  12.5177150  41.9623230  12.8102900  12.2907840
  47.2139480   9.3606360  30.2830780  46.6077640   9.3837960  29.5426530
  46.9093590   8.6289400  30.8198030  48.6439850  13.0886650  28.8940190
  49.5961600  13.0044670  28.8440430  48.4968070  13.7528360  29.5673980
  51.5349050  12.4680860  14.3932100  51.2490560  12.0546000  13.5786280
  51.3368600  13.3968570  14.2732620  36.0972660   5.7399950  29.2791420
  36.6011680   5.1607230  29.8507650  35.3580080   6.0240180  29.8167790
  42.9996280   8.4614140  12.8337710  42.8946920   7.8466490  13.5599090
  42.8320500   7.9380030  12.0500720  43.1510600   7.1470940  28.8126940
  42.3856270   7.7155940  28.7281610  43.3326560   6.8547150  27.9195170
  46.2399010   7.5234170  13.4379700  45.6909110   7.9703470  14.0822440
  46.8618270   7.0183420  13.9617370  50.2933950   8.8776270  29.3701960
  51.0343420   9.2152030  28.8669420  49.5306630   9.0468330  28.8171730
  38.1295740   3.8829540  30.1741490  38.1701080   3.5843410  31.0826720
  38.9841240   4.2837150  30.0149010  41.9074130   6.4825090  15.3345000
  42.3290550   6.3164960  16.1776390  42.0324970   5.6725320  14.8400140
  40.0701550   2.4621640  28.1415980  39.5398010   1.9712590  27.5139320
  40.7389620   2.8905840  27.6073910  44.4201770   5.5062700  12.5822100
  44.9407430   4.7911720  12.2163250  45.0670170   6.1448570  12.8822610
  48.9679610   6.9291100  27.9057170  49.3820630   7.0836180  28.7547590
  48.0330610   7.0546320  28.0682950  49.4401780   4.2687260  29.9096320
  50.0222550   3.5139580  29.8216800  49.6163550   4.7994700  29.1327800
  43.7294840   6.8811580  25.8753100  44.1482950   7.7244310  25.7029340
  42.8103470   7.0183620  25.6459880  46.0658740   4.6127760  27.2590940
  46.1854950   4.0168900  27.9985780  46.9252740   4.6497450  26.8392240
  48.4046640   5.1664950  25.8353450  47.8781860   5.6907570  25.2318590
  48.7477980   5.7992340  26.4663180  40.8033030   2.5558320  12.2803160
  40.6022090   1.6925680  12.6416500  40.6325080   2.4691680  11.3424760
  41.5802260  13.1864590  26.9910830  41.0423350  13.9110650  26.6719530
  41.8336220  12.7094930  26.2008170  44.4364470  14.4215800  27.2497480
  44.3623170  15.3250940  27.5569850  43.5343310  14.1027700  27.2219550
  44.9849800  13.5874310  14.8723840  45.8800590  13.9259280  14.8942600
  45.0167430  12.8653720  14.2448120  38.6245960   8.9601360  13.1010840
  39.0620830   9.5031030  13.7568420  39.1093690   8.1348310  13.1107180
  35.8391760  11.7490390  20.5531100  36.1694770  10.8811450  20.3209740
  36.2682760  11.9548910  21.3836060  40.4353680  10.0799400  18.2133070
  40.1349220   9.9564370  19.1136980  40.3291170   9.2207990  17.8048800
  36.3281970  12.6160980  23.2912730  35.8912960  12.7961780  24.1236880
  36.8959650  13.3735600  23.1494450  51.9644150  12.1177980  27.5790040
  51.3646140  12.1770540  26.8353960  52.0938050  11.1782960  27.7086890
  53.2045600   9.8595800  12.9159750  52.3738560   9.9272450  13.3866980
  53.3817430  10.7499920  12.6126610  52.6602060   6.6043280  15.4193950
  53.4220970   7.1739930  15.5253640  52.6756430   6.0370480  16.1902260
  36.1606400   5.1281210  19.6501610  35.5055240   4.8592850  19.0061310
  36.9984350   5.0185690  19.2003590  53.6662030   7.4593380  20.2635880
  54.0370860   6.6760700  19.8571850  54.3063960   8.1482480  20.0853180
  50.6495790   8.8429960  25.6766200  49.8355630   9.2727120  25.9391990
  51.0569990   9.4548370  25.0635250  52.7121230   6.8977650  12.5766470
  52.9870070   7.8056530  12.4485690  52.5231970   6.8340180  13.5128460
  52.6086570   4.8346640  17.5695900  52.2330170   4.0674570  17.1377190
  51.8789690   5.2169340  18.0570830  37.1982330   5.5133780  24.1904950
  37.5655370   5.4261180  25.0700970  36.6293150   4.7500330  24.0911810
  51.9986190   3.9818160  27.2035420  51.7672280   3.7530910  26.3033370
  52.2590740   4.9017710  27.1580310  36.7498330   2.4242870  28.0963370
  35.8554380   2.3909630  28.4357080  37.2895880   2.6229660  28.8614620
  35.3744480   2.3380140  15.5926940  34.4708560   2.6010340  15.4178600
  35.8585100   2.6091310  14.8126900  51.8837530   3.0604130  20.8703140
  52.4075010   2.5666780  20.2393310  52.4696950   3.1954490  21.6150710
  52.0627250   3.1444000  24.3922690  51.1129960   3.1107540  24.5067680
  52.2440260   4.0544110  24.1572460  51.3737500   2.3177480  16.8095550
  51.8696620   2.0848350  17.5944430  51.1753570   1.4789320  16.3933190
  50.7071840  13.5948560  19.2034470  51.3030910  13.2733130  18.5268890
  50.9649990  13.1220380  19.9947740  38.6134410  10.0266470  29.3525100
  38.5704040   9.6559380  30.2339560  38.7445420  10.9644040  29.4926920
  42.3140440  11.5826060  24.9534820  42.0731800  11.8500620  24.0665340
  43.2543080  11.7531790  25.0085680  53.5744600  13.6020440  25.7545460
  53.0802880  13.9989310  25.0372590  52.9657890  12.9769650  26.1482740
  38.4522440  12.9728720  26.4722880  37.8582760  12.8413420  27.2112920
  38.4446280  12.1366860  26.0064980  51.2584050  14.2443860  23.0332200
  50.7987020  14.9959670  22.6590220  50.6296510  13.5250330  22.9747000
  38.0834670  10.3387100  25.4230920  37.3568730   9.7192390  25.3556870
  38.1443820  10.7327710  24.5529000  41.6879770  12.5532100  22.2080330
  42.2044790  11.9419460  21.6828590  42.3377150  13.0560880  22.6991340
  44.4275270  13.4440590  23.0349310  44.7153080  13.1894890  22.1582320
  44.9398490  12.8917950  23.6254880  36.3664670  13.6561490  18.6327680
  36.1986710  13.0232170  19.3309570  35.4999180  13.8620890  18.2821870
  37.9727370  12.3494720  16.0777820  37.4474990  12.7302750  15.3739780
  37.8971950  12.9745490  16.7987530  44.4947630  14.3656690  30.4017510
  45.4214940  14.1300960  30.4453470  44.4798060  15.1928690  29.9203540
  52.7292690  13.9082260  17.3991760  52.9044880  13.2220000  16.7552680
  52.0314260  14.4329310  17.0068430  40.5720340  14.2977100  14.9527070
  41.3039160  14.0136380  14.4050960  40.8314010  14.0590380  15.8426450
  39.7335130  10.4141830  14.9573400  39.1044010  10.8826930  15.5059230
  39.8482960   9.5691050  15.3919590  51.0625190  13.5926550  30.2258550
  51.8550510  13.0975780  30.0184510  51.3558340  14.2716690  30.8334160
  45.3202890   6.2426510   2.9883870  44.5444990   5.7626950   3.2782440
  45.9715820   5.5632160   2.8140030  39.3368720   6.5546320   3.8659630
  38.5053600   6.2995030   4.2656140  39.9449700   6.6257090   4.6017550
  49.3410320  10.6486700   1.7683000  48.8791850   9.8773940   2.0970170
  50.1535870  10.6752770   2.2735450  39.3169980  10.5886410   4.0617650
  39.6198020   9.6984150   3.8827870  40.0613570  11.1456630   3.8339900
  35.7093680   4.1153860   3.5341720  36.2809790   3.3476060   3.5345360
  35.7095220   4.4142620   2.6248330  44.7611880   8.9183700   2.9954030
  44.6920160   7.9773640   2.8343160  45.5231740   9.0085110   3.5676600
  41.7629790   3.0666080   3.0165580  42.2708010   3.5647050   3.6570600
  42.2943030   2.2901280   2.8404940  41.2968740   7.3459820   5.4602500
  40.9638120   7.9728740   6.1023570  41.4735420   7.8721700   4.6804170
  40.5087840   9.3140620   7.2751680  41.1261840   9.9891700   6.9936130
  39.6480960   9.7228600   7.1839180  51.4265430  10.7780030   5.1906320
  50.7428950  11.4479140   5.1822990  51.9659720  10.9760680   4.4251180
  48.9624170  12.6224160   3.9051500  48.9751330  12.2186450   3.0373760
  48.4099390  13.3971450   3.8012930  48.3609610   7.5254000   5.2334110
  48.7778400   7.3114110   4.3987570  49.0849430   7.7826790   5.8042730
  52.3071710   5.9241220   5.3250350  51.4790340   5.9934310   4.8500480
  52.9022190   6.5095530   4.8566180  49.2713720   2.7110540   6.2705220
  48.8584900   3.5364250   6.5245210  48.5389670   2.1255580   6.0781580
  41.8728210   9.1838000   3.2963100  41.5756500   8.5783470   2.6170880
  42.8228030   9.2215310   3.1852460  40.1175130   2.2713650   4.9122930
  40.6689720   2.3808990   4.1376180  40.6318640   2.6451250   5.6278160
  49.9613820  12.7569870   6.9586200  49.4844380  13.5642060   6.7658810
  49.2775610  12.1048200   7.1112410  40.9646640   8.9219690   9.9470900
  40.0675170   9.1459660  10.1944300  40.9899510   9.0454630   8.9982300
  39.7917860   5.7933010   8.5228270  39.6525630   6.6655810   8.8915670
  38.9099220   5.4505820   8.3776210  41.5898210  11.7354710  10.7313420
  41.5613640  12.1397660   9.8641850  41.4263180  10.8065070  10.5685020
  53.5413030  12.5181810  12.0277590  54.0172750  12.9964700  12.7066670
  54.1620190  12.4499300  11.3023090  35.7436510   7.5630560   4.4399180
  35.8216930   7.6979330   3.4954900  36.3578190   6.8546450   4.6327300
  52.9446280   9.7094660   9.1877600  53.0709340   9.4706540   8.2694780
  52.9867660   8.8779200   9.6599680  46.8063020  13.4122660   7.7572410
  47.3207690  13.3230670   8.5594840  45.9632100  13.7582360   8.0500320
  35.7996030   8.6044730   6.9793640  35.9627070   8.1350090   6.1613010
  36.2648480   8.0968290   7.6442480  49.8589120   1.8227960   8.7486190
  49.0082710   1.5233710   9.0695260  49.6990910   2.0669970   7.8370010
  46.9538830   3.3229710  10.8484980  47.2792240   2.4893460  10.5087210
  47.7419160   3.8458230  10.9963310  42.8028230   3.7569640  10.4095730
  42.7071830   2.8164370  10.2596130  43.6460210   3.9784710  10.0143800
  46.7846790   4.0916720   4.4680170  46.0527910   4.6003530   4.8170270
  46.3871130   3.2746700   4.1668950  37.3735010   7.9796160   9.1389450
  36.9889800   7.3389830   9.7372410  37.6847200   8.6832280   9.7084180
  43.5232150   4.8272700   4.6198070  43.8902280   4.3531270   5.3659410
  43.3337210   5.7014270   4.9606410  41.3131520   3.8681340   6.9382280
  41.0088590   4.7473320   7.1632640  42.2677980   3.9281130   6.9739720
  50.6001290   7.0707690   3.3275520  51.3200410   7.5662980   2.9371630
  50.3983110   6.3925580   2.6829390  45.9820090   7.1416750   9.2144520
  45.9157400   6.2212420   8.9602110  45.3525230   7.2392190   9.9289160
  37.3695250   4.7084080   8.0853640  37.0110190   5.3737930   8.6726980
  37.0749810   3.8767630   8.4566260  40.5708370   5.1668320  10.9693190
  40.2708510   5.3125500  10.0721010  41.3419610   4.6073610  10.8766580
  45.9136820   9.9637320   8.9648320  45.9281360   9.0318280   8.7467230
  45.2061920  10.0497080   9.6038090  52.1248030   6.6044660   8.3116900
  51.3996220   7.1973440   8.1146290  52.6523490   6.5968200   7.5130270
  45.3470720  11.6054890   6.0588820  45.9912940  11.8114270   6.7362240
  45.7100160  10.8443290   5.6059670  46.6202800   9.6087240   4.7766270
  47.2625030   8.9080400   4.8898440  47.1452150  10.3885680   4.5963160
  48.3940420  10.4082140   7.9802330  48.7296660  10.9948830   8.6580250
  47.4740760  10.2774850   8.2100120  36.2316410  12.1857580   9.7492270
  36.3407530  11.2452320   9.6087660  35.5796970  12.4512330   9.1006000
  44.2229000  10.4573470  11.1490390  43.9025870   9.7382710  11.6936080
  43.5487360  11.1328540  11.2226450  44.3984590   3.3439220   6.7365160
  44.8969840   3.8185040   7.4017010  44.5407540   2.4202740   6.9435190
  51.8999040  11.9749210   2.7009170  52.0246460  12.7980380   3.1732980
  52.7664600  11.7639940   2.3533320  39.3716570  14.0680420   2.3726300
  40.1079050  13.5195880   2.6434870  39.7557490  14.9336430   2.2332290
  38.3774850  13.2526490  11.5611880  39.1787580  13.5738540  11.9747280
  37.8626670  12.8922070  12.2831790  47.2139480   9.3606360  11.5087290
  46.6077640   9.3837960  10.7683040  46.9093590   8.6289400  12.0454540
  48.6439850  13.0886650  10.1196700  49.5961600  13.0044670  10.0696940
  48.4968070  13.7528360  10.7930490  36.0972660   5.7399950  10.5047930
  36.6011680   5.1607230  11.0764160  35.3580080   6.0240180  11.0424300
  43.1510600   7.1470940  10.0383450  42.3856270   7.7155940   9.9538120
  43.3326560   6.8547150   9.1451680  50.2933950   8.8776270  10.5958470
  51.0343420   9.2152030  10.0925930  49.5306630   9.0468330  10.0428240
  38.1295740   3.8829540  11.3998000  38.1701080   3.5843410  12.3083230
  38.9841240   4.2837150  11.2405520  40.0701550   2.4621640   9.3672490
  39.5398010   1.9712590   8.7395830  40.7389620   2.8905840   8.8330420
  48.9679610   6.9291100   9.1313680  49.3820630   7.0836180   9.9804100
  48.0330610   7.0546320   9.2939460  49.4401780   4.2687260  11.1352830
  50.0222550   3.5139580  11.0473310  49.6163550   4.7994700  10.3584310
  43.7294840   6.8811580   7.1009610  44.1482950   7.7244310   6.9285850
  42.8103470   7.0183620   6.8716390  46.0658740   4.6127760   8.4847450
  46.1854950   4.0168900   9.2242290  46.9252740   4.6497450   8.0648750
  48.4046640   5.1664950   7.0609960  47.8781860   5.6907570   6.4575100
  48.7477980   5.7992340   7.6919690  41.5802260  13.1864590   8.2167340
  41.0423350  13.9110650   7.8976040  41.8336220  12.7094930   7.4264680
  44.4364470  14.4215800   8.4753990  44.3623170  15.3250940   8.7826360
  43.5343310  14.1027700   8.4476060  36.3281970  12.6160980   4.5169240
  35.8912960  12.7961780   5.3493390  36.8959650  13.3735600   4.3750960
  51.9644150  12.1177980   8.8046550  51.3646140  12.1770540   8.0610470
  52.0938050  11.1782960   8.9343400  50.6495790   8.8429960   6.9022710
  49.8355630   9.2727120   7.1648500  51.0569990   9.4548370   6.2891760
  37.1982330   5.5133780   5.4161460  37.5655370   5.4261180   6.2957480
  36.6293150   4.7500330   5.3168320  51.9986190   3.9818160   8.4291930
  51.7672280   3.7530910   7.5289880  52.2590740   4.9017710   8.3836820
  36.7498330   2.4242870   9.3219880  35.8554380   2.3909630   9.6613590
  37.2895880   2.6229660  10.0871130  52.0627250   3.1444000   5.6179200
  51.1129960   3.1107540   5.7324190  52.2440260   4.0544110   5.3828970
  38.6134410  10.0266470  10.5781610  38.5704040   9.6559380  11.4596070
  38.7445420  10.9644040  10.7183430  42.3140440  11.5826060   6.1791330
  42.0731800  11.8500620   5.2921850  43.2543080  11.7531790   6.2342190
  53.5744600  13.6020440   6.9801970  53.0802880  13.9989310   6.2629100
  52.9657890  12.9769650   7.3739250  38.4522440  12.9728720   7.6979390
  37.8582760  12.8413420   8.4369430  38.4446280  12.1366860   7.2321490
  51.2584050  14.2443860   4.2588710  50.7987020  14.9959670   3.8846730
  50.6296510  13.5250330   4.2003510  38.0834670  10.3387100   6.6487430
  37.3568730   9.7192390   6.5813380  38.1443820  10.7327710   5.7785510
  41.6879770  12.5532100   3.4336840  42.2044790  11.9419460   2.9085100
  42.3377150  13.0560880   3.9247850  44.4275270  13.4440590   4.2605820
  44.7153080  13.1894890   3.3838830  44.9398490  12.8917950   4.8511390
  44.4947630  14.3656690  11.6274020  45.4214940  14.1300960  11.6709980
  44.4798060  15.1928690  11.1460050  51.0625190  13.5926550  11.4515060
  51.8550510  13.0975780  11.2441020  51.3558340  14.2716690  12.0590670
  28.4141360  79.5621450  76.2048560  28.3335410  78.6476060  75.9340270
  28.0005780  80.0588520  75.4988270  26.5459400  81.3400470  78.0857830
  25.7701500  80.8600910  78.3756400  27.1972330  80.6606120  77.9113990
  18.9717180  76.6122170  72.7475980  18.0833880  76.9538140  72.6455860
  19.2558370  76.4122490  71.8556810  16.9350190  79.2127820  78.6315680
  17.5066300  78.4450020  78.6319320  16.9351730  79.5116580  77.7222290
  25.9868390  84.0157660  78.0927990  25.9176670  83.0747600  77.9317120
  26.7488250  84.1059070  78.6650560  27.0173560  76.8228040  78.3196920
  27.3938380  75.9499920  78.2070590  26.9193070  77.1586740  77.4287360
  21.1478570  75.1953670  73.7814360  21.2545320  76.0957400  74.0883120
  20.2370930  75.1471640  73.4909010  30.7997680  74.3178480  75.2525260
  31.6207300  73.8275050  75.2950740  30.8331760  74.9076140  76.0057100
  22.9886300  78.1640040  78.1139540  23.4964520  78.6621010  78.7544560
  23.5199540  77.3875240  77.9378900  27.6593490  82.9157910  73.8792860
  27.0410760  83.3807360  73.3155580  28.1716740  83.6085390  74.2962370
  31.0359160  76.2578860  78.0252800  30.3314730  76.5463750  78.6055910
  31.3971320  77.0678970  77.6652360  34.1046080  75.7033650  78.4162010
  33.1570990  75.7372630  78.5477440  34.4296070  76.5172600  78.8011370
  24.6365620  72.0030830  76.7118000  24.9440600  71.4477720  75.9953500
  23.7066320  72.1375290  76.5290990  27.0246380  80.0679660  73.4478120
  26.0975660  80.0017040  73.6766590  27.1771200  81.0059790  73.3333360
  27.0115460  76.3396660  70.4445280  26.0719130  76.5010620  70.5297740
  27.3298720  77.0582340  69.8981270  31.0543670  81.6299960  73.9513370
  30.4356090  81.2919510  73.3039670  31.0368120  80.9859720  74.6592560
  22.6303020  80.5944400  76.2297850  22.2260020  79.8821650  75.7343750
  22.7166140  80.2497640  77.1185890  29.2308370  80.8686770  70.9586120
  29.6701650  80.0309200  70.8123940  29.9436790  81.5016170  71.0450260
  32.8125510  72.1229580  69.2727160  32.4998170  72.2156410  70.1726230
  33.5737980  72.7010610  69.2224590  19.3307650  79.4889380  73.7304500
  19.2105250  80.2151470  73.1185770  19.0208540  78.7192290  73.2532410
  21.7971310  72.8324450  77.1128170  21.3539460  73.6133990  76.7812690
  22.3556300  73.1554340  77.8199110  24.9130130  72.4535150  71.9934000
  24.2884310  72.4495020  72.7187310  24.8260250  71.5866110  71.5969970
  21.5885530  77.9558020  74.8409420  21.3626450  77.7395190  75.7456040
  20.8078060  78.3886480  74.4955390  28.8183290  77.9621390  73.4400070
  28.2192180  78.6857190  73.2563690  29.3662900  77.8998170  72.6576520
  27.4248160  76.5984930  75.4703350  27.8177730  76.9157130  74.6572040
  27.7865010  75.7196810  75.5847870  16.4612330  73.1885730  77.6933550
  16.1725380  73.7588590  78.4058530  17.2058090  72.7090180  78.0564780
  16.6482560  77.1305850  68.9036270  16.5657230  78.0736610  69.0451260
  16.2965620  76.9880760  68.0248620  24.4480690  75.8644880  77.9706620
  24.4516750  75.4234830  77.1211160  25.3431810  76.1862210  78.0778440
  20.2983070  75.7471370  76.9300830  19.9583120  76.2246600  77.6867880
  19.5360390  75.2936490  76.5701930  24.5100840  76.8656960  70.9613380
  24.6313660  76.8243440  71.9099200  24.1249350  77.7281110  70.8060110
  23.5222340  79.1758100  70.3596680  22.9539240  78.7276350  69.7332590
  24.2311340  79.5350880  69.8261830  17.6129150  74.6690350  75.8465500
  17.3276070  74.3046020  76.6844120  17.5508010  73.9370810  75.2328640
  21.0669820  83.1716290  72.6323090  20.2932080  82.6313910  72.4721810
  21.7964450  82.6522900  72.2940850  31.8257800  82.1681650  78.4249480
  32.5456920  82.6636940  78.0345590  31.6239620  81.4899540  77.7803350
  27.2867740  73.5619610  72.5678870  26.4732350  73.0632780  72.4924180
  27.0929690  74.4017860  72.1515220  30.0016130  77.9339260  70.8641030
  30.8895750  78.2456490  70.6892370  29.9721220  77.0611510  70.4721610
  21.1107220  82.8396670  76.2701900  21.6285890  82.0364930  76.2158790
  20.6591240  82.7775810  77.1118730  32.2730400  79.2451100  70.3320890
  32.1894120  79.6765320  69.4817330  32.9924590  79.7049450  70.7647710
  28.8804130  83.4278790  76.9074710  29.2327950  82.8306920  76.2476080
  27.9966460  83.1023020  77.0782960  17.1059810  79.8049300  69.8062200
  17.9754660  80.0874100  70.0898120  16.6150130  80.6185170  69.6911010
  24.2694620  81.1922510  73.9270480  24.7257400  82.0027760  74.1530670
  23.9182830  80.8745650  74.7588970  20.1706400  71.5360160  74.3993000
  20.0421030  71.5278060  75.3477920  19.3468420  71.8743250  74.0484010
  31.2731280  82.9081760  71.2593530  30.9852980  83.3694450  72.0471410
  32.0683450  82.4479530  71.5277750  19.0906320  81.6222770  71.9344260
  18.4834270  82.3621670  71.9439560  19.5655670  81.7122130  71.1082460
  32.0301140  74.7430530  72.4188710  31.4014300  74.8476200  71.7046940
  31.5353060  74.9627310  73.2082590  23.9985170  77.0216480  73.8346590
  23.2901320  77.4902820  74.2760200  24.2829650  76.3638490  74.4691780
  28.0300600  73.7467140  75.2742380  27.9068380  73.7653270  74.3251890
  28.9785160  73.7946080  75.3940780  22.2020190  75.3301560  71.2097300
  23.0510720  75.7671710  71.1437490  21.8351460  75.6421820  72.0369360
  31.1229970  79.9014320  76.1228870  30.1820110  79.9164550  76.2976560
  31.4374040  79.1150280  76.5689170  21.1011610  81.5833920  69.6832830
  21.8674880  81.4715280  70.2458260  21.1786300  80.8871890  69.0309600
  19.7958370  79.0158990  70.3665720  19.8761960  78.0686500  70.4783120
  20.6878120  79.3465870  70.4726380  24.2252790  83.5588100  69.1568180
  24.1203430  82.9440450  69.8829560  24.0577010  83.0353990  68.3731190
  27.4655520  82.6208130  69.7610170  26.9165620  83.0677430  70.4052910
  28.0874780  82.1157380  70.2847840  23.1330640  81.5799050  71.6575470
  23.5547060  81.4138920  72.5006860  23.2581480  80.7699280  71.1630610
  25.6458280  80.6036660  68.9052570  26.1663940  79.8885680  68.5393720
  26.2926680  81.2422530  69.2053080  22.0289540  77.6532280  68.6033630
  21.8278600  76.7899640  68.9646970  21.8581590  77.5665640  67.6655230
  29.5077850  72.4640510  71.1320510  29.7880140  71.6208410  71.4879930
  28.7343580  72.6963620  71.6459260  20.8272340  74.7532900  68.5911510
  21.1298240  74.7600330  67.6830660  21.5666930  74.4030760  69.0879170
  24.0457270  73.6967520  69.5767710  23.6979270  73.0191510  68.9970160
  24.2470040  73.2357030  70.3911100  33.8858570  81.7017240  71.7424420
  34.6477480  82.2713890  71.8484110  33.9012940  81.1344440  72.5132730
  17.3862910  80.2255170  75.9732080  16.7311750  79.9566810  75.3291780
  18.2240860  80.1159650  75.5234060  34.8918540  82.5567340  76.5866350
  35.2627370  81.7734660  76.1802320  35.5320470  83.2456440  76.4083650
  33.9377740  81.9951610  68.8996940  34.2126580  82.9030490  68.7716160
  33.7488480  81.9314140  69.8358930  30.3353350  75.0196460  70.1950570
  30.7538230  74.8327440  69.3547230  30.0289410  74.1675510  70.5053500
  33.8343080  79.9320600  73.8926370  33.4586680  79.1648530  73.4607660
  33.1046200  80.3143300  74.3801300  16.6000990  77.4354100  71.9157410
  15.6965070  77.6984300  71.7409070  17.0841610  77.7065270  71.1357370
  33.1094040  78.1578090  77.1933610  33.6331520  77.6640740  76.5623780
  33.6953460  78.2928450  77.9381180  19.1428200  76.4919640  69.8251790
  19.8519900  76.0702860  69.3399070  18.4268140  76.5594870  69.1935140
  18.7902360  72.5458970  68.8654440  19.5130490  73.0867910  69.1835660
  19.0626880  72.2722390  67.9895980  32.5994010  77.4151440  73.1326020
  33.0953130  77.1822310  73.9174900  32.4010080  76.5763280  72.7163660
  34.0281170  76.0512390  75.6663700  33.9180450  75.8968430  76.6045970
  34.7888760  75.5233330  75.4239110  34.9171440  73.8820310  68.9069840
  35.8420750  73.7501490  68.6988130  34.8947230  73.9613130  69.8606290
  34.9909930  74.6530970  71.5326550  34.1961430  74.5876090  72.0619460
  35.1953210  75.5881610  71.5211900  31.4229860  72.9827850  77.9825380
  31.8637950  72.9272950  77.1346980  31.1537450  73.8985860  78.0535560
  33.2868430  72.6143090  75.9934200  33.2256830  71.6704310  75.8465220
  34.0660460  72.7223180  76.5387660  18.2149200  72.5852230  72.4590010
  18.9728560  72.6981110  71.8854040  17.7526370  73.4221430  72.4133440
  24.7563010  74.6991500  75.4492320  23.9437520  74.3248390  75.1088200
  25.2604650  73.9436580  75.7513510  29.2587990  71.3633950  76.6875390
  29.8617360  71.9354160  77.1623910  28.5180980  71.9273390  76.4649290
  32.4022590  71.7655510  71.9615670  32.5973220  72.6638960  72.2283100
  31.6152460  71.5342590  72.4548620  20.5874350  73.1116280  70.9991980
  21.1167110  72.3246080  70.8699930  21.2202670  73.7907470  71.2327510
  22.7812190  72.8491420  74.0537370  22.1514930  72.1478730  74.2207500
  22.2417330  73.6095550  73.8370530  28.4141360  79.5621450  57.4305070
  28.3335410  78.6476060  57.1596780  28.0005780  80.0588520  56.7244780
  26.5459400  81.3400470  59.3114340  25.7701500  80.8600910  59.6012910
  27.1972330  80.6606120  59.1370500  20.5625230  81.6520280  60.1890100
  19.7310110  81.3968990  60.5886610  21.1706210  81.7231050  60.9248020
  18.9717180  76.6122170  53.9732490  18.0833880  76.9538140  53.8712370
  19.2558370  76.4122490  53.0813320  16.9350190  79.2127820  59.8572190
  17.5066300  78.4450020  59.8575830  16.9351730  79.5116580  58.9478800
  25.9868390  84.0157660  59.3184500  25.9176670  83.0747600  59.1573630
  26.7488250  84.1059070  59.8907070  18.1775060  74.6212180  61.6441120
  17.9977900  73.7237930  61.9243880  17.7755140  75.1684050  62.3188070
  27.0173560  76.8228040  59.5453430  27.3938380  75.9499920  59.4327100
  26.9193070  77.1586740  58.6543870  21.1478570  75.1953670  55.0070870
  21.2545320  76.0957400  55.3139630  20.2370930  75.1471640  54.7165520
  30.7997680  74.3178480  56.4781770  31.6207300  73.8275050  56.5207250
  30.8331760  74.9076140  57.2313610  18.7961730  77.1172680  60.2523460
  19.4771840  77.3811050  60.8710860  18.4809780  76.2773550  60.5861470
  22.9886300  78.1640040  59.3396050  23.4964520  78.6621010  59.9801070
  23.5199540  77.3875240  59.1635410  35.0897230  76.3345230  63.0425400
  34.3849400  76.7226940  62.5240510  35.3555150  77.0295520  63.6446330
  21.2722400  72.8038600  63.6059470  21.2740840  73.3210990  62.8005370
  20.4426710  72.3268780  63.5829400  27.6593490  82.9157910  55.1049370
  27.0410760  83.3807360  54.5412090  28.1716740  83.6085390  55.5218880
  22.5225250  82.4433780  61.7832970  22.1894630  83.0702700  62.4254040
  22.6991930  82.9695660  61.0034640  31.0359160  76.2578860  59.2509310
  30.3314730  76.5463750  59.8312420  31.3971320  77.0678970  58.8908870
  20.9537730  74.5148560  61.6129920  21.2954540  75.3590610  61.3183790
  20.0153540  74.6632300  61.7295260  34.1046080  75.7033650  59.6418520
  33.1570990  75.7372630  59.7733950  34.4296070  76.5172600  60.0267880
  24.6365620  72.0030830  57.9374510  24.9440600  71.4477720  57.2210010
  23.7066320  72.1375290  57.7547500  29.5866120  82.6227960  61.5564580
  30.0034910  82.4088070  60.7218040  30.3105940  82.8800750  62.1273200
  27.0246380  80.0679660  54.6734630  26.0975660  80.0017040  54.9023100
  27.1771200  81.0059790  54.5589870  27.0115460  76.3396660  51.6701790
  26.0719130  76.5010620  51.7554250  27.3298720  77.0582340  51.1237780
  33.5328220  81.0215180  61.6480820  32.7046850  81.0908270  61.1730950
  34.1278700  81.6069490  61.1796650  31.0543670  81.6299960  55.1769880
  30.4356090  81.2919510  54.5296180  31.0368120  80.9859720  55.8849070
  30.4970230  77.8084500  62.5935690  30.0841410  78.6338210  62.8475680
  29.7646180  77.2229540  62.4012050  22.6303020  80.5944400  57.4554360
  22.2260020  79.8821650  56.9600260  22.7166140  80.2497640  58.3442400
  21.3431640  77.3687610  61.2353400  21.8946230  77.4782950  60.4606650
  21.8575150  77.7425210  61.9508630  29.2308370  80.8686770  52.1842630
  29.6701650  80.0309200  52.0380450  29.9436790  81.5016170  52.2706770
  21.0174370  80.8906970  64.8458740  20.8782140  81.7629770  65.2146140
  20.1355730  80.5479780  64.7006680  32.8125510  72.1229580  50.4983670
  32.4998170  72.2156410  51.3982740  33.5737980  72.7010610  50.4481100
  19.3307650  79.4889380  54.9561010  19.2105250  80.2151470  54.3442280
  19.0208540  78.7192290  54.4788920  16.9693020  82.6604520  60.7629650
  17.0473440  82.7953290  59.8185370  17.5834700  81.9520410  60.9557770
  34.0226800  76.8601080  66.4757810  33.4071070  77.3680750  65.9473270
  33.7023220  75.9599410  66.4183750  17.0252540  83.7018690  63.3024110
  17.1883580  83.2324050  62.4843480  17.4904990  83.1942250  63.9672950
  21.7971310  72.8324450  58.3384680  21.3539460  73.6133990  58.0069200
  22.3556300  73.1554340  59.0455620  26.0841120  75.6992970  63.9420000
  25.6220490  75.9075990  64.7539940  25.6819230  74.8852320  63.6390670
  31.0845630  76.9201920  65.0716660  30.2339220  76.6207670  65.3925730
  30.9247420  77.1643930  64.1600480  28.1795340  78.4203670  67.1715450
  28.5048750  77.5867420  66.8317680  28.9675670  78.9432190  67.3193780
  24.9130130  72.4535150  53.2190510  24.2884310  72.4495020  53.9443820
  24.8260250  71.5866110  52.8226480  23.8347210  73.3771780  60.1974280
  24.1319540  74.2834610  60.1166300  24.3832770  72.8890560  59.5833850
  21.5885530  77.9558020  56.0665930  21.3626450  77.7395190  56.9712550
  20.8078060  78.3886480  55.7211900  28.8183290  77.9621390  54.6656580
  28.2192180  78.6857190  54.4820200  29.3662900  77.8998170  53.8833030
  24.0284740  78.8543600  66.7326200  23.9328340  77.9138330  66.5826600
  24.8716720  79.0758670  66.3374270  27.4248160  76.5984930  56.6959860
  27.8177730  76.9157130  55.8828550  27.7865010  75.7196810  56.8104380
  19.1595280  75.2657270  64.8859980  18.7658670  76.1132480  65.0932760
  18.4713680  74.6283640  65.0768620  25.7340330  75.3492240  67.9556720
  25.0438650  75.1564440  68.5902810  26.4772630  75.6326880  68.4881020
  16.4612330  73.1885730  58.9190060  16.1725380  73.7588590  59.6315040
  17.2058090  72.7090180  59.2821290  16.6482560  77.1305850  50.1292780
  16.5657230  78.0736610  50.2707770  16.2965620  76.9880760  49.2505130
  28.0103300  79.1890680  60.7910640  27.2784420  79.6977490  61.1400740
  27.6127640  78.3720660  60.4899420  24.4480690  75.8644880  59.1963130
  24.4516750  75.4234830  58.3467670  25.3431810  76.1862210  59.3034950
  20.2983070  75.7471370  58.1557340  19.9583120  76.2246600  58.9124390
  19.5360390  75.2936490  57.7958440  24.5100840  76.8656960  52.1869890
  24.6313660  76.8243440  53.1355710  24.1249350  77.7281110  52.0316620
  28.4729210  74.6424360  60.2033580  28.4901950  75.0933010  61.0475430
  28.2244790  73.7430000  60.4167020  23.5222340  79.1758100  51.5853190
  22.9539240  78.7276350  50.9589100  24.2311340  79.5350880  51.0518340
  31.8999960  72.0556540  66.0419960  32.2245730  71.3246200  66.5677940
  31.9356470  71.7370180  65.1400950  18.5991520  83.0770120  65.4619920
  18.2146310  82.4363790  66.0602880  18.9103710  83.7806240  66.0314650
  24.7488660  79.9246660  60.9428540  25.1158790  79.4505230  61.6889880
  24.5593720  80.7988230  61.2836880  17.6129150  74.6690350  57.0722010
  17.3276070  74.3046020  57.9100630  17.5508010  73.9370810  56.4585150
  22.5388030  78.9655300  63.2612750  22.2345100  79.8447280  63.4863110
  23.4934490  79.0255090  63.2970190  21.0669820  83.1716290  53.8579600
  20.2932080  82.6313910  53.6978320  21.7964450  82.6522900  53.5197360
  31.8257800  82.1681650  59.6505990  32.5456920  82.6636940  59.2602100
  31.6239620  81.4899540  59.0059860  27.2867740  73.5619610  53.7935380
  26.4732350  73.0632780  53.7180690  27.0929690  74.4017860  53.3771730
  27.2076600  82.2390710  65.5374990  27.1413910  81.3186380  65.2832580
  26.5781740  82.3366150  66.2519630  30.0016130  77.9339260  52.0897540
  30.8895750  78.2456490  51.9148880  29.9721220  77.0611510  51.6978120
  21.1107220  82.8396670  57.4958410  21.6285890  82.0364930  57.4415300
  20.6591240  82.7775810  58.3375240  18.5951760  79.8058040  64.4084110
  18.2366700  80.4711890  64.9957450  18.3006320  78.9741590  64.7796730
  21.7964880  80.2642280  67.2923660  21.4965020  80.4099460  66.3951480
  22.5676120  79.7047570  67.1997050  32.2730400  79.2451100  51.5577400
  32.1894120  79.6765320  50.7073840  32.9924590  79.7049450  51.9904220
  33.3504540  81.7018620  64.6347370  32.6252730  82.2947400  64.4376760
  33.8780000  81.6942160  63.8360740  28.8804130  83.4278790  58.1331220
  29.2327950  82.8306920  57.4732590  27.9966460  83.1023020  58.3039470
  17.1059810  79.8049300  51.0318710  17.9754660  80.0874100  51.3154630
  16.6150130  80.6185170  50.9167520  24.2694620  81.1922510  55.1526990
  24.7257400  82.0027760  55.3787180  23.9182830  80.8745650  55.9845480
  20.1706400  71.5360160  55.6249510  20.0421030  71.5278060  56.5734430
  19.3468420  71.8743250  55.2740520  17.1700330  73.2951280  65.0856210
  16.4558850  73.4948200  65.6908820  17.5895370  72.5190850  65.4571010
  31.2731280  82.9081760  52.4850040  30.9852980  83.3694450  53.2727920
  32.0683450  82.4479530  52.7534260  19.0906320  81.6222770  53.1600770
  18.4834270  82.3621670  53.1696070  19.5655670  81.7122130  52.3338970
  28.6639110  75.7873590  62.8357660  29.0319930  74.9668800  63.1637230
  27.8037310  75.8475480  63.2513310  32.0301140  74.7430530  53.6445220
  31.4014300  74.8476200  52.9303450  31.5353060  74.9627310  54.4339100
  23.9985170  77.0216480  55.0603100  23.2901320  77.4902820  55.5016710
  24.2829650  76.3638490  55.6948290  25.6241100  78.4413180  63.0595630
  26.1226350  78.9159000  63.7247480  25.7664050  77.5176700  63.2665660
  28.0300600  73.7467140  56.4998890  27.9068380  73.7653270  55.5508400
  28.9785160  73.7946080  56.6197290  22.2020190  75.3301560  52.4353810
  23.0510720  75.7671710  52.3694000  21.8351460  75.6421820  53.2625870
  32.8307960  74.6581140  63.9024020  32.3281560  75.3986540  64.2417830
  33.6464620  75.0465140  63.5860810  31.1229970  79.9014320  57.3485380
  30.1820110  79.9164550  57.5233070  31.4374040  79.1150280  57.7945680
  21.1011610  81.5833920  50.9089340  21.8674880  81.4715280  51.4714770
  21.1786300  80.8871890  50.2566110  19.7958370  79.0158990  51.5922230
  19.8761960  78.0686500  51.7039630  20.6878120  79.3465870  51.6982890
  17.3229170  80.8373910  66.8278400  17.8268190  80.2581190  67.3994630
  16.5836590  81.1214140  67.3654770  24.2252790  83.5588100  50.3824690
  24.1203430  82.9440450  51.1086070  24.0577010  83.0353990  49.5987700
  24.3767110  82.2444900  66.3613920  23.6112780  82.8129900  66.2768590
  24.5583070  81.9521110  65.4682150  27.4655520  82.6208130  50.9866680
  26.9165620  83.0677430  51.6309420  28.0874780  82.1157380  51.5104350
  19.3552250  78.9803500  67.7228470  19.3957590  78.6817370  68.6313700
  20.2097750  79.3811110  67.5635990  23.1330640  81.5799050  52.8831980
  23.5547060  81.4138920  53.7263370  23.2581480  80.7699280  52.3887120
  21.2958060  77.5595600  65.6902960  20.7654520  77.0686550  65.0626300
  21.9646130  77.9879800  65.1560890  25.6458280  80.6036660  50.1309080
  26.1663940  79.8885680  49.7650230  26.2926680  81.2422530  50.4309590
  30.1936120  82.0265060  65.4544150  30.6077140  82.1810140  66.3034570
  29.2587120  82.1520280  65.6169930  30.6658290  79.3661220  67.4583300
  31.2479060  78.6113540  67.3703780  30.8420060  79.8968660  66.6814780
  21.7830360  74.5257970  65.7700250  21.6887230  73.9078720  65.0451120
  21.2027750  75.2524260  65.5430160  24.5491800  73.0831210  62.8027640
  24.1009100  73.1055470  61.9573190  23.9157000  72.6850230  63.3997940
  24.9551350  81.9785540  63.4240080  25.3739460  82.8218270  63.2516320
  24.0359980  82.1157580  63.1946860  27.2915250  79.7101720  64.8077920
  27.4111460  79.1142860  65.5472760  28.1509250  79.7471410  64.3879220
  29.6303150  80.2638910  63.3840430  29.1038370  80.7881530  62.7805570
  29.9734490  80.8966300  64.0150160  22.0289540  77.6532280  49.8290140
  21.8278600  76.7899640  50.1903480  21.8581590  77.5665640  48.8911740
  24.0584020  76.2523070  66.0653740  24.6483710  75.9438920  66.7531560
  23.2404260  75.7802820  66.2213640  28.8777450  75.8688880  66.2986760
  28.1892970  75.2070420  66.2336750  29.5983470  75.4227150  66.7435220
  29.5077850  72.4640510  52.3577020  29.7880140  71.6208410  52.7136440
  28.7343580  72.6963620  52.8715770  20.8272340  74.7532900  49.8168020
  21.1298240  74.7600330  48.9087170  21.5666930  74.4030760  50.3135680
  24.0457270  73.6967520  50.8024220  23.6979270  73.0191510  50.2226670
  24.2470040  73.2357030  51.6167610  33.8858570  81.7017240  52.9680930
  34.6477480  82.2713890  53.0740620  33.9012940  81.1344440  53.7389240
  17.3862910  80.2255170  57.1988590  16.7311750  79.9566810  56.5548290
  18.2240860  80.1159650  56.7490570  34.8918540  82.5567340  57.8122860
  35.2627370  81.7734660  57.4058830  35.5320470  83.2456440  57.6340160
  33.9377740  81.9951610  50.1253450  34.2126580  82.9030490  49.9972670
  33.7488480  81.9314140  51.0615440  30.3353350  75.0196460  51.4207080
  30.7538230  74.8327440  50.5803740  30.0289410  74.1675510  51.7310010
  33.8343080  79.9320600  55.1182880  33.4586680  79.1648530  54.6864170
  33.1046200  80.3143300  55.6057810  18.4238840  80.6107740  61.7391930
  18.7911880  80.5235140  62.6187950  17.8549660  79.8474290  61.6398790
  33.2242700  79.0792120  64.7522400  32.9928790  78.8504870  63.8520350
  33.4847250  79.9991670  64.7067290  17.9754840  77.5216830  65.6450350
  17.0810890  77.4883590  65.9844060  18.5152390  77.7203620  66.4101600
  31.6630770  74.3048550  67.5302100  32.5400950  74.3131950  67.9136100
  31.6751610  73.5679390  66.9194450  16.6000990  77.4354100  53.1413920
  15.6965070  77.6984300  52.9665580  17.0841610  77.7065270  52.3613880
  33.1094040  78.1578090  58.4190120  33.6331520  77.6640740  57.7880290
  33.6953460  78.2928450  59.1637690  33.2883760  78.2417960  61.9409670
  32.3386470  78.2081500  62.0554660  33.4696770  79.1518070  61.7059440
  19.1428200  76.4919640  51.0508300  19.8519900  76.0702860  50.5655580
  18.4268140  76.5594870  50.4191650  18.7902360  72.5458970  50.0910950
  19.5130490  73.0867910  50.4092170  19.0626880  72.2722390  49.2152490
  32.5994010  77.4151440  54.3582530  33.0953130  77.1822310  55.1431410
  32.4010080  76.5763280  53.9420170  18.4794550  71.7965160  59.9933570
  19.1270740  71.2462540  59.5528730  18.8996390  72.0508310  60.8149380
  34.0281170  76.0512390  56.8920210  33.9180450  75.8968430  57.8302480
  34.7888760  75.5233330  56.6495620  32.3746890  71.9906520  63.3503210
  33.0119110  72.6040660  63.7162400  32.5221780  72.0267180  62.4052440
  34.9171440  73.8820310  50.1326350  35.8420750  73.7501490  49.9244640
  34.8947230  73.9613130  51.0862800  34.9909930  74.6530970  52.7583060
  34.1961430  74.5876090  53.2875970  35.1953210  75.5881610  52.7468410
  18.2326550  71.9520830  62.7358890  17.8841370  72.4084650  63.5017070
  17.9014250  71.0577960  62.8181320  25.7451370  73.1432710  66.2578310
  25.6840260  73.7354540  67.0073720  26.6851750  73.0358670  66.1128570
  28.3825930  72.8002770  65.8970600  28.9966340  73.1182060  65.2351680
  28.9275490  72.3151360  66.5166460  18.9047190  71.4797030  66.0109660
  19.4530180  71.2985080  65.2475770  18.9702500  70.6891140  66.5465970
  29.1233970  71.3634910  62.2239890  28.2493810  71.6970020  62.0212820
  29.0144720  70.8908090  63.0491760  30.0305950  73.5705780  63.6081610
  29.7019310  72.7557540  63.2283340  30.9788250  73.5275590  63.4847300
  26.8708790  72.2804750  61.1632800  26.0880580  72.7550250  61.4429560
  26.5771720  71.3759580  61.0545980  31.4229860  72.9827850  59.2081890
  31.8637950  72.9272950  58.3603490  31.1537450  73.8985860  59.2792070
  33.2868430  72.6143090  57.2190710  33.2256830  71.6704310  57.0721730
  34.0660460  72.7223180  57.7644170  18.2149200  72.5852230  53.6846520
  18.9728560  72.6981110  53.1110550  17.7526370  73.4221430  53.6389950
  24.7563010  74.6991500  56.6748830  23.9437520  74.3248390  56.3344710
  25.2604650  73.9436580  56.9770020  29.2587990  71.3633950  57.9131900
  29.8617360  71.9354160  58.3880420  28.5180980  71.9273390  57.6905800
  32.4022590  71.7655510  53.1872180  32.5973220  72.6638960  53.4539610
  31.6152460  71.5342590  53.6805130  20.5874350  73.1116280  52.2248490
  21.1167110  72.3246080  52.0956440  21.2202670  73.7907470  52.4584020
  22.7812190  72.8491420  55.2793880  22.1514930  72.1478730  55.4464010
  22.2417330  73.6095550  55.0627040  22.9067750  72.1275400  67.7146370
  22.6252020  72.6309000  66.9507190  23.2887450  71.3297150  67.3488500
  29.5083210  71.5428980  68.2926840  29.3948660  71.8623590  69.1878360
  30.3252950  71.9441490  67.9964120  28.4141360  79.5621450  38.6561580
  28.3335410  78.6476060  38.3853290  28.0005780  80.0588520  37.9501290
  26.5459400  81.3400470  40.5370850  25.7701500  80.8600910  40.8269420
  27.1972330  80.6606120  40.3627010  20.5625230  81.6520280  41.4146610
  19.7310110  81.3968990  41.8143120  21.1706210  81.7231050  42.1504530
  18.9717180  76.6122170  35.1989000  18.0833880  76.9538140  35.0968880
  19.2558370  76.4122490  34.3069830  16.9350190  79.2127820  41.0828700
  17.5066300  78.4450020  41.0832340  16.9351730  79.5116580  40.1735310
  25.9868390  84.0157660  40.5441010  25.9176670  83.0747600  40.3830140
  26.7488250  84.1059070  41.1163580  18.1775060  74.6212180  42.8697630
  17.9977900  73.7237930  43.1500390  17.7755140  75.1684050  43.5444580
  27.0173560  76.8228040  40.7709940  27.3938380  75.9499920  40.6583610
  26.9193070  77.1586740  39.8800380  21.1478570  75.1953670  36.2327380
  21.2545320  76.0957400  36.5396140  20.2370930  75.1471640  35.9422030
  30.7997680  74.3178480  37.7038280  31.6207300  73.8275050  37.7463760
  30.8331760  74.9076140  38.4570120  18.7961730  77.1172680  41.4779970
  19.4771840  77.3811050  42.0967370  18.4809780  76.2773550  41.8117980
  22.9886300  78.1640040  40.5652560  23.4964520  78.6621010  41.2057580
  23.5199540  77.3875240  40.3891920  35.0897230  76.3345230  44.2681910
  34.3849400  76.7226940  43.7497020  35.3555150  77.0295520  44.8702840
  21.2722400  72.8038600  44.8315980  21.2740840  73.3210990  44.0261880
  20.4426710  72.3268780  44.8085910  27.6593490  82.9157910  36.3305880
  27.0410760  83.3807360  35.7668600  28.1716740  83.6085390  36.7475390
  22.5225250  82.4433780  43.0089480  22.1894630  83.0702700  43.6510550
  22.6991930  82.9695660  42.2291150  31.0359160  76.2578860  40.4765820
  30.3314730  76.5463750  41.0568930  31.3971320  77.0678970  40.1165380
  20.9537730  74.5148560  42.8386430  21.2954540  75.3590610  42.5440300
  20.0153540  74.6632300  42.9551770  34.1046080  75.7033650  40.8675030
  33.1570990  75.7372630  40.9990460  34.4296070  76.5172600  41.2524390
  29.5866120  82.6227960  42.7821090  30.0034910  82.4088070  41.9474550
  30.3105940  82.8800750  43.3529710  27.0246380  80.0679660  35.8991140
  26.0975660  80.0017040  36.1279610  27.1771200  81.0059790  35.7846380
  27.0115460  76.3396660  32.8958300  26.0719130  76.5010620  32.9810760
  27.3298720  77.0582340  32.3494290  33.5328220  81.0215180  42.8737330
  32.7046850  81.0908270  42.3987460  34.1278700  81.6069490  42.4053160
  31.0543670  81.6299960  36.4026390  30.4356090  81.2919510  35.7552690
  31.0368120  80.9859720  37.1105580  30.4970230  77.8084500  43.8192200
  30.0841410  78.6338210  44.0732190  29.7646180  77.2229540  43.6268560
  22.6303020  80.5944400  38.6810870  22.2260020  79.8821650  38.1856770
  22.7166140  80.2497640  39.5698910  21.3431640  77.3687610  42.4609910
  21.8946230  77.4782950  41.6863160  21.8575150  77.7425210  43.1765140
  29.2308370  80.8686770  33.4099140  29.6701650  80.0309200  33.2636960
  29.9436790  81.5016170  33.4963280  21.0174370  80.8906970  46.0715250
  20.8782140  81.7629770  46.4402650  20.1355730  80.5479780  45.9263190
  32.8125510  72.1229580  31.7240180  32.4998170  72.2156410  32.6239250
  33.5737980  72.7010610  31.6737610  19.3307650  79.4889380  36.1817520
  19.2105250  80.2151470  35.5698790  19.0208540  78.7192290  35.7045430
  16.9693020  82.6604520  41.9886160  17.0473440  82.7953290  41.0441880
  17.5834700  81.9520410  42.1814280  34.0226800  76.8601080  47.7014320
  33.4071070  77.3680750  47.1729780  33.7023220  75.9599410  47.6440260
  17.0252540  83.7018690  44.5280620  17.1883580  83.2324050  43.7099990
  17.4904990  83.1942250  45.1929460  26.0841120  75.6992970  45.1676510
  25.6220490  75.9075990  45.9796450  25.6819230  74.8852320  44.8647180
  31.0845630  76.9201920  46.2973170  30.2339220  76.6207670  46.6182240
  30.9247420  77.1643930  45.3856990  28.1795340  78.4203670  48.3971960
  28.5048750  77.5867420  48.0574190  28.9675670  78.9432190  48.5450290
  24.9130130  72.4535150  34.4447020  24.2884310  72.4495020  35.1700330
  24.8260250  71.5866110  34.0482990  21.5885530  77.9558020  37.2922440
  21.3626450  77.7395190  38.1969060  20.8078060  78.3886480  36.9468410
  28.8183290  77.9621390  35.8913090  28.2192180  78.6857190  35.7076710
  29.3662900  77.8998170  35.1089540  24.0284740  78.8543600  47.9582710
  23.9328340  77.9138330  47.8083110  24.8716720  79.0758670  47.5630780
  27.4248160  76.5984930  37.9216370  27.8177730  76.9157130  37.1085060
  27.7865010  75.7196810  38.0360890  19.1595280  75.2657270  46.1116490
  18.7658670  76.1132480  46.3189270  18.4713680  74.6283640  46.3025130
  25.7340330  75.3492240  49.1813230  25.0438650  75.1564440  49.8159320
  26.4772630  75.6326880  49.7137530  16.4612330  73.1885730  40.1446570
  16.1725380  73.7588590  40.8571550  17.2058090  72.7090180  40.5077800
  16.6482560  77.1305850  31.3549290  16.5657230  78.0736610  31.4964280
  16.2965620  76.9880760  30.4761640  28.0103300  79.1890680  42.0167150
  27.2784420  79.6977490  42.3657250  27.6127640  78.3720660  41.7155930
  24.4480690  75.8644880  40.4219640  24.4516750  75.4234830  39.5724180
  25.3431810  76.1862210  40.5291460  20.2983070  75.7471370  39.3813850
  19.9583120  76.2246600  40.1380900  19.5360390  75.2936490  39.0214950
  24.5100840  76.8656960  33.4126400  24.6313660  76.8243440  34.3612220
  24.1249350  77.7281110  33.2573130  28.4729210  74.6424360  41.4290090
  28.4901950  75.0933010  42.2731940  28.2244790  73.7430000  41.6423530
  23.5222340  79.1758100  32.8109700  22.9539240  78.7276350  32.1845610
  24.2311340  79.5350880  32.2774850  31.8999960  72.0556540  47.2676470
  32.2245730  71.3246200  47.7934450  31.9356470  71.7370180  46.3657460
  18.5991520  83.0770120  46.6876430  18.2146310  82.4363790  47.2859390
  18.9103710  83.7806240  47.2571160  24.7488660  79.9246660  42.1685050
  25.1158790  79.4505230  42.9146390  24.5593720  80.7988230  42.5093390
  17.6129150  74.6690350  38.2978520  17.3276070  74.3046020  39.1357140
  17.5508010  73.9370810  37.6841660  22.5388030  78.9655300  44.4869260
  22.2345100  79.8447280  44.7119620  23.4934490  79.0255090  44.5226700
  21.0669820  83.1716290  35.0836110  20.2932080  82.6313910  34.9234830
  21.7964450  82.6522900  34.7453870  31.8257800  82.1681650  40.8762500
  32.5456920  82.6636940  40.4858610  31.6239620  81.4899540  40.2316370
  27.2867740  73.5619610  35.0191890  26.4732350  73.0632780  34.9437200
  27.0929690  74.4017860  34.6028240  27.2076600  82.2390710  46.7631500
  27.1413910  81.3186380  46.5089090  26.5781740  82.3366150  47.4776140
  30.0016130  77.9339260  33.3154050  30.8895750  78.2456490  33.1405390
  29.9721220  77.0611510  32.9234630  21.1107220  82.8396670  38.7214920
  21.6285890  82.0364930  38.6671810  20.6591240  82.7775810  39.5631750
  18.5951760  79.8058040  45.6340620  18.2366700  80.4711890  46.2213960
  18.3006320  78.9741590  46.0053240  21.7964880  80.2642280  48.5180170
  21.4965020  80.4099460  47.6207990  22.5676120  79.7047570  48.4253560
  32.2730400  79.2451100  32.7833910  32.1894120  79.6765320  31.9330350
  32.9924590  79.7049450  33.2160730  33.3504540  81.7018620  45.8603880
  32.6252730  82.2947400  45.6633270  33.8780000  81.6942160  45.0617250
  28.8804130  83.4278790  39.3587730  29.2327950  82.8306920  38.6989100
  27.9966460  83.1023020  39.5295980  17.1059810  79.8049300  32.2575220
  17.9754660  80.0874100  32.5411140  16.6150130  80.6185170  32.1424030
  24.2694620  81.1922510  36.3783500  24.7257400  82.0027760  36.6043690
  23.9182830  80.8745650  37.2101990  20.1706400  71.5360160  36.8506020
  20.0421030  71.5278060  37.7990940  19.3468420  71.8743250  36.4997030
  17.1700330  73.2951280  46.3112720  16.4558850  73.4948200  46.9165330
  17.5895370  72.5190850  46.6827520  31.2731280  82.9081760  33.7106550
  30.9852980  83.3694450  34.4984430  32.0683450  82.4479530  33.9790770
  19.0906320  81.6222770  34.3857280  18.4834270  82.3621670  34.3952580
  19.5655670  81.7122130  33.5595480  28.6639110  75.7873590  44.0614170
  29.0319930  74.9668800  44.3893740  27.8037310  75.8475480  44.4769820
  32.0301140  74.7430530  34.8701730  31.4014300  74.8476200  34.1559960
  31.5353060  74.9627310  35.6595610  23.9985170  77.0216480  36.2859610
  23.2901320  77.4902820  36.7273220  24.2829650  76.3638490  36.9204800
  25.6241100  78.4413180  44.2852140  26.1226350  78.9159000  44.9503990
  25.7664050  77.5176700  44.4922170  28.0300600  73.7467140  37.7255400
  27.9068380  73.7653270  36.7764910  28.9785160  73.7946080  37.8453800
  22.2020190  75.3301560  33.6610320  23.0510720  75.7671710  33.5950510
  21.8351460  75.6421820  34.4882380  32.8307960  74.6581140  45.1280530
  32.3281560  75.3986540  45.4674340  33.6464620  75.0465140  44.8117320
  31.1229970  79.9014320  38.5741890  30.1820110  79.9164550  38.7489580
  31.4374040  79.1150280  39.0202190  21.1011610  81.5833920  32.1345850
  21.8674880  81.4715280  32.6971280  21.1786300  80.8871890  31.4822620
  19.7958370  79.0158990  32.8178740  19.8761960  78.0686500  32.9296140
  20.6878120  79.3465870  32.9239400  17.3229170  80.8373910  48.0534910
  17.8268190  80.2581190  48.6251140  16.5836590  81.1214140  48.5911280
  24.2252790  83.5588100  31.6081200  24.1203430  82.9440450  32.3342580
  24.0577010  83.0353990  30.8244210  24.3767110  82.2444900  47.5870430
  23.6112780  82.8129900  47.5025100  24.5583070  81.9521110  46.6938660
  27.4655520  82.6208130  32.2123190  26.9165620  83.0677430  32.8565930
  28.0874780  82.1157380  32.7360860  19.3552250  78.9803500  48.9484980
  19.3957590  78.6817370  49.8570210  20.2097750  79.3811110  48.7892500
  23.1330640  81.5799050  34.1088490  23.5547060  81.4138920  34.9519880
  23.2581480  80.7699280  33.6143630  21.2958060  77.5595600  46.9159470
  20.7654520  77.0686550  46.2882810  21.9646130  77.9879800  46.3817400
  25.6458280  80.6036660  31.3565590  26.1663940  79.8885680  30.9906740
  26.2926680  81.2422530  31.6566100  30.1936120  82.0265060  46.6800660
  30.6077140  82.1810140  47.5291080  29.2587120  82.1520280  46.8426440
  30.6658290  79.3661220  48.6839810  31.2479060  78.6113540  48.5960290
  30.8420060  79.8968660  47.9071290  21.7830360  74.5257970  46.9956760
  21.6887230  73.9078720  46.2707630  21.2027750  75.2524260  46.7686670
  24.5491800  73.0831210  44.0284150  24.1009100  73.1055470  43.1829700
  23.9157000  72.6850230  44.6254450  24.9551350  81.9785540  44.6496590
  25.3739460  82.8218270  44.4772830  24.0359980  82.1157580  44.4203370
  27.2915250  79.7101720  46.0334430  27.4111460  79.1142860  46.7729270
  28.1509250  79.7471410  45.6135730  29.6303150  80.2638910  44.6096940
  29.1038370  80.7881530  44.0062080  29.9734490  80.8966300  45.2406670
  22.0289540  77.6532280  31.0546650  21.8278600  76.7899640  31.4159990
  21.8581590  77.5665640  30.1168250  24.0584020  76.2523070  47.2910250
  24.6483710  75.9438920  47.9788070  23.2404260  75.7802820  47.4470150
  28.8777450  75.8688880  47.5243270  28.1892970  75.2070420  47.4593260
  29.5983470  75.4227150  47.9691730  29.5077850  72.4640510  33.5833530
  29.7880140  71.6208410  33.9392950  28.7343580  72.6963620  34.0972280
  20.8272340  74.7532900  31.0424530  21.1298240  74.7600330  30.1343680
  21.5666930  74.4030760  31.5392190  24.0457270  73.6967520  32.0280730
  23.6979270  73.0191510  31.4483180  24.2470040  73.2357030  32.8424120
  33.8858570  81.7017240  34.1937440  34.6477480  82.2713890  34.2997130
  33.9012940  81.1344440  34.9645750  17.3862910  80.2255170  38.4245100
  16.7311750  79.9566810  37.7804800  18.2240860  80.1159650  37.9747080
  34.8918540  82.5567340  39.0379370  35.2627370  81.7734660  38.6315340
  35.5320470  83.2456440  38.8596670  33.9377740  81.9951610  31.3509960
  34.2126580  82.9030490  31.2229180  33.7488480  81.9314140  32.2871950
  30.3353350  75.0196460  32.6463590  30.7538230  74.8327440  31.8060250
  30.0289410  74.1675510  32.9566520  33.8343080  79.9320600  36.3439390
  33.4586680  79.1648530  35.9120680  33.1046200  80.3143300  36.8314320
  18.4238840  80.6107740  42.9648440  18.7911880  80.5235140  43.8444460
  17.8549660  79.8474290  42.8655300  33.2242700  79.0792120  45.9778910
  32.9928790  78.8504870  45.0776860  33.4847250  79.9991670  45.9323800
  17.9754840  77.5216830  46.8706860  17.0810890  77.4883590  47.2100570
  18.5152390  77.7203620  47.6358110  31.6630770  74.3048550  48.7558610
  32.5400950  74.3131950  49.1392610  31.6751610  73.5679390  48.1450960
  16.6000990  77.4354100  34.3670430  15.6965070  77.6984300  34.1922090
  17.0841610  77.7065270  33.5870390  33.1094040  78.1578090  39.6446630
  33.6331520  77.6640740  39.0136800  33.6953460  78.2928450  40.3894200
  33.2883760  78.2417960  43.1666180  32.3386470  78.2081500  43.2811170
  33.4696770  79.1518070  42.9315950  19.1428200  76.4919640  32.2764810
  19.8519900  76.0702860  31.7912090  18.4268140  76.5594870  31.6448160
  18.7902360  72.5458970  31.3167460  19.5130490  73.0867910  31.6348680
  19.0626880  72.2722390  30.4409000  32.5994010  77.4151440  35.5839040
  33.0953130  77.1822310  36.3687920  32.4010080  76.5763280  35.1676680
  18.4794550  71.7965160  41.2190080  19.1270740  71.2462540  40.7785240
  18.8996390  72.0508310  42.0405890  34.0281170  76.0512390  38.1176720
  33.9180450  75.8968430  39.0558990  34.7888760  75.5233330  37.8752130
  34.9171440  73.8820310  31.3582860  35.8420750  73.7501490  31.1501150
  34.8947230  73.9613130  32.3119310  34.9909930  74.6530970  33.9839570
  34.1961430  74.5876090  34.5132480  35.1953210  75.5881610  33.9724920
  18.2326550  71.9520830  43.9615400  17.8841370  72.4084650  44.7273580
  17.9014250  71.0577960  44.0437830  25.7451370  73.1432710  47.4834820
  25.6840260  73.7354540  48.2330230  26.6851750  73.0358670  47.3385080
  28.3825930  72.8002770  47.1227110  28.9966340  73.1182060  46.4608190
  28.9275490  72.3151360  47.7422970  18.9047190  71.4797030  47.2366170
  19.4530180  71.2985080  46.4732280  18.9702500  70.6891140  47.7722480
  29.1233970  71.3634910  43.4496400  28.2493810  71.6970020  43.2469330
  29.0144720  70.8908090  44.2748270  30.0305950  73.5705780  44.8338120
  29.7019310  72.7557540  44.4539850  30.9788250  73.5275590  44.7103810
  26.8708790  72.2804750  42.3889310  26.0880580  72.7550250  42.6686070
  26.5771720  71.3759580  42.2802490  31.4229860  72.9827850  40.4338400
  31.8637950  72.9272950  39.5860000  31.1537450  73.8985860  40.5048580
  33.2868430  72.6143090  38.4447220  33.2256830  71.6704310  38.2978240
  34.0660460  72.7223180  38.9900680  18.2149200  72.5852230  34.9103030
  18.9728560  72.6981110  34.3367060  17.7526370  73.4221430  34.8646460
  24.7563010  74.6991500  37.9005340  23.9437520  74.3248390  37.5601220
  25.2604650  73.9436580  38.2026530  32.4022590  71.7655510  34.4128690
  32.5973220  72.6638960  34.6796120  31.6152460  71.5342590  34.9061640
  20.5874350  73.1116280  33.4505000  21.1167110  72.3246080  33.3212950
  21.2202670  73.7907470  33.6840530  22.7812190  72.8491420  36.5050390
  22.1514930  72.1478730  36.6720520  22.2417330  73.6095550  36.2883550
  22.9067750  72.1275400  48.9402880  22.6252020  72.6309000  48.1763700
  23.2887450  71.3297150  48.5745010  29.5083210  71.5428980  49.5183350
  29.3948660  71.8623590  50.4134870  30.3252950  71.9441490  49.2220630
  28.4141360  79.5621450  19.8818090  28.3335410  78.6476060  19.6109800
  28.0005780  80.0588520  19.1757800  26.5459400  81.3400470  21.7627360
  25.7701500  80.8600910  22.0525930  27.1972330  80.6606120  21.5883520
  20.5625230  81.6520280  22.6403120  19.7310110  81.3968990  23.0399630
  21.1706210  81.7231050  23.3761040  18.9717180  76.6122170  16.4245510
  18.0833880  76.9538140  16.3225390  19.2558370  76.4122490  15.5326340
  16.9350190  79.2127820  22.3085210  17.5066300  78.4450020  22.3088850
  16.9351730  79.5116580  21.3991820  25.9868390  84.0157660  21.7697520
  25.9176670  83.0747600  21.6086650  26.7488250  84.1059070  22.3420090
  18.1775060  74.6212180  24.0954140  17.9977900  73.7237930  24.3756900
  17.7755140  75.1684050  24.7701090  27.0173560  76.8228040  21.9966450
  27.3938380  75.9499920  21.8840120  26.9193070  77.1586740  21.1056890
  21.1478570  75.1953670  17.4583890  21.2545320  76.0957400  17.7652650
  20.2370930  75.1471640  17.1678540  30.7997680  74.3178480  18.9294790
  31.6207300  73.8275050  18.9720270  30.8331760  74.9076140  19.6826630
  18.7961730  77.1172680  22.7036480  19.4771840  77.3811050  23.3223880
  18.4809780  76.2773550  23.0374490  22.9886300  78.1640040  21.7909070
  23.4964520  78.6621010  22.4314090  23.5199540  77.3875240  21.6148430
  35.0897230  76.3345230  25.4938420  34.3849400  76.7226940  24.9753530
  35.3555150  77.0295520  26.0959350  21.2722400  72.8038600  26.0572490
  21.2740840  73.3210990  25.2518390  20.4426710  72.3268780  26.0342420
  27.6593490  82.9157910  17.5562390  27.0410760  83.3807360  16.9925110
  28.1716740  83.6085390  17.9731900  22.5225250  82.4433780  24.2345990
  22.1894630  83.0702700  24.8767060  22.6991930  82.9695660  23.4547660
  31.0359160  76.2578860  21.7022330  30.3314730  76.5463750  22.2825440
  31.3971320  77.0678970  21.3421890  20.9537730  74.5148560  24.0642940
  21.2954540  75.3590610  23.7696810  20.0153540  74.6632300  24.1808280
  34.1046080  75.7033650  22.0931540  33.1570990  75.7372630  22.2246970
  34.4296070  76.5172600  22.4780900  24.6365620  72.0030830  20.3887530
  24.9440600  71.4477720  19.6723030  23.7066320  72.1375290  20.2060520
  29.5866120  82.6227960  24.0077600  30.0034910  82.4088070  23.1731060
  30.3105940  82.8800750  24.5786220  27.0246380  80.0679660  17.1247650
  26.0975660  80.0017040  17.3536120  27.1771200  81.0059790  17.0102890
  27.0115460  76.3396660  14.1214810  26.0719130  76.5010620  14.2067270
  27.3298720  77.0582340  13.5750800  33.5328220  81.0215180  24.0993840
  32.7046850  81.0908270  23.6243970  34.1278700  81.6069490  23.6309670
  31.0543670  81.6299960  17.6282900  30.4356090  81.2919510  16.9809200
  31.0368120  80.9859720  18.3362090  30.4970230  77.8084500  25.0448710
  30.0841410  78.6338210  25.2988700  29.7646180  77.2229540  24.8525070
  22.6303020  80.5944400  19.9067380  22.2260020  79.8821650  19.4113280
  22.7166140  80.2497640  20.7955420  21.3431640  77.3687610  23.6866420
  21.8946230  77.4782950  22.9119670  21.8575150  77.7425210  24.4021650
  29.2308370  80.8686770  14.6355650  29.6701650  80.0309200  14.4893470
  29.9436790  81.5016170  14.7219790  21.0174370  80.8906970  27.2971760
  20.8782140  81.7629770  27.6659160  20.1355730  80.5479780  27.1519700
  32.8125510  72.1229580  12.9496690  32.4998170  72.2156410  13.8495760
  33.5737980  72.7010610  12.8994120  19.3307650  79.4889380  17.4074030
  19.2105250  80.2151470  16.7955300  19.0208540  78.7192290  16.9301940
  16.9693020  82.6604520  23.2142670  17.0473440  82.7953290  22.2698390
  17.5834700  81.9520410  23.4070790  34.0226800  76.8601080  28.9270830
  33.4071070  77.3680750  28.3986290  33.7023220  75.9599410  28.8696770
  17.0252540  83.7018690  25.7537130  17.1883580  83.2324050  24.9356500
  17.4904990  83.1942250  26.4185970  21.7971310  72.8324450  20.7897700
  21.3539460  73.6133990  20.4582220  22.3556300  73.1554340  21.4968640
  26.0841120  75.6992970  26.3933020  25.6220490  75.9075990  27.2052960
  25.6819230  74.8852320  26.0903690  31.0845630  76.9201920  27.5229680
  30.2339220  76.6207670  27.8438750  30.9247420  77.1643930  26.6113500
  28.1795340  78.4203670  29.6228470  28.5048750  77.5867420  29.2830700
  28.9675670  78.9432190  29.7706800  24.9130130  72.4535150  15.6703530
  24.2884310  72.4495020  16.3956840  24.8260250  71.5866110  15.2739500
  23.8347210  73.3771780  22.6487300  24.1319540  74.2834610  22.5679320
  24.3832770  72.8890560  22.0346870  21.5885530  77.9558020  18.5178950
  21.3626450  77.7395190  19.4225570  20.8078060  78.3886480  18.1724920
  28.8183290  77.9621390  17.1169600  28.2192180  78.6857190  16.9333220
  29.3662900  77.8998170  16.3346050  24.0284740  78.8543600  29.1839220
  23.9328340  77.9138330  29.0339620  24.8716720  79.0758670  28.7887290
  27.4248160  76.5984930  19.1472880  27.8177730  76.9157130  18.3341570
  27.7865010  75.7196810  19.2617400  19.1595280  75.2657270  27.3373000
  18.7658670  76.1132480  27.5445780  18.4713680  74.6283640  27.5281640
  25.7340330  75.3492240  30.4069740  25.0438650  75.1564440  31.0415830
  26.4772630  75.6326880  30.9394040  16.4612330  73.1885730  21.3703080
  16.1725380  73.7588590  22.0828060  17.2058090  72.7090180  21.7334310
  16.6482560  77.1305850  12.5805800  16.5657230  78.0736610  12.7220790
  16.2965620  76.9880760  11.7018150  28.0103300  79.1890680  23.2423660
  27.2784420  79.6977490  23.5913760  27.6127640  78.3720660  22.9412440
  24.4480690  75.8644880  21.6476150  24.4516750  75.4234830  20.7980690
  25.3431810  76.1862210  21.7547970  20.2983070  75.7471370  20.6070360
  19.9583120  76.2246600  21.3637410  19.5360390  75.2936490  20.2471460
  24.5100840  76.8656960  14.6382910  24.6313660  76.8243440  15.5868730
  24.1249350  77.7281110  14.4829640  28.4729210  74.6424360  22.6546600
  28.4901950  75.0933010  23.4988450  28.2244790  73.7430000  22.8680040
  23.5222340  79.1758100  14.0366210  22.9539240  78.7276350  13.4102120
  24.2311340  79.5350880  13.5031360  31.8999960  72.0556540  28.4932980
  32.2245730  71.3246200  29.0190960  31.9356470  71.7370180  27.5913970
  18.5991520  83.0770120  27.9132940  18.2146310  82.4363790  28.5115900
  18.9103710  83.7806240  28.4827670  24.7488660  79.9246660  23.3941560
  25.1158790  79.4505230  24.1402900  24.5593720  80.7988230  23.7349900
  17.6129150  74.6690350  19.5235030  17.3276070  74.3046020  20.3613650
  17.5508010  73.9370810  18.9098170  22.5388030  78.9655300  25.7125770
  22.2345100  79.8447280  25.9376130  23.4934490  79.0255090  25.7483210
  21.0669820  83.1716290  16.3092620  20.2932080  82.6313910  16.1491340
  21.7964450  82.6522900  15.9710380  31.8257800  82.1681650  22.1019010
  32.5456920  82.6636940  21.7115120  31.6239620  81.4899540  21.4572880
  27.2867740  73.5619610  16.2448400  26.4732350  73.0632780  16.1693710
  27.0929690  74.4017860  15.8284750  27.2076600  82.2390710  27.9888010
  27.1413910  81.3186380  27.7345600  26.5781740  82.3366150  28.7032650
  30.0016130  77.9339260  14.5410560  30.8895750  78.2456490  14.3661900
  29.9721220  77.0611510  14.1491140  21.1107220  82.8396670  19.9471430
  21.6285890  82.0364930  19.8928320  20.6591240  82.7775810  20.7888260
  18.5951760  79.8058040  26.8597130  18.2366700  80.4711890  27.4470470
  18.3006320  78.9741590  27.2309750  21.7964880  80.2642280  29.7436680
  21.4965020  80.4099460  28.8464500  22.5676120  79.7047570  29.6510070
  32.2730400  79.2451100  14.0090420  32.1894120  79.6765320  13.1586860
  32.9924590  79.7049450  14.4417240  33.3504540  81.7018620  27.0860390
  32.6252730  82.2947400  26.8889780  33.8780000  81.6942160  26.2873760
  28.8804130  83.4278790  20.5844240  29.2327950  82.8306920  19.9245610
  27.9966460  83.1023020  20.7552490  17.1059810  79.8049300  13.4831730
  17.9754660  80.0874100  13.7667650  16.6150130  80.6185170  13.3680540
  24.2694620  81.1922510  17.6040010  24.7257400  82.0027760  17.8300200
  23.9182830  80.8745650  18.4358500  20.1706400  71.5360160  18.0762530
  20.0421030  71.5278060  19.0247450  19.3468420  71.8743250  17.7253540
  17.1700330  73.2951280  27.5369230  16.4558850  73.4948200  28.1421840
  17.5895370  72.5190850  27.9084030  31.2731280  82.9081760  14.9363060
  30.9852980  83.3694450  15.7240940  32.0683450  82.4479530  15.2047280
  19.0906320  81.6222770  15.6113790  18.4834270  82.3621670  15.6209090
  19.5655670  81.7122130  14.7851990  28.6639110  75.7873590  25.2870680
  29.0319930  74.9668800  25.6150250  27.8037310  75.8475480  25.7026330
  32.0301140  74.7430530  16.0958240  31.4014300  74.8476200  15.3816470
  31.5353060  74.9627310  16.8852120  23.9985170  77.0216480  17.5116120
  23.2901320  77.4902820  17.9529730  24.2829650  76.3638490  18.1461310
  25.6241100  78.4413180  25.5108650  26.1226350  78.9159000  26.1760500
  25.7664050  77.5176700  25.7178680  28.0300600  73.7467140  18.9511910
  27.9068380  73.7653270  18.0021420  28.9785160  73.7946080  19.0710310
  22.2020190  75.3301560  14.8866830  23.0510720  75.7671710  14.8207020
  21.8351460  75.6421820  15.7138890  32.8307960  74.6581140  26.3537040
  32.3281560  75.3986540  26.6930850  33.6464620  75.0465140  26.0373830
  31.1229970  79.9014320  19.7998400  30.1820110  79.9164550  19.9746090
  31.4374040  79.1150280  20.2458700  21.1011610  81.5833920  13.3602360
  21.8674880  81.4715280  13.9227790  21.1786300  80.8871890  12.7079130
  19.7958370  79.0158990  14.0435250  19.8761960  78.0686500  14.1552650
  20.6878120  79.3465870  14.1495910  17.3229170  80.8373910  29.2791420
  17.8268190  80.2581190  29.8507650  16.5836590  81.1214140  29.8167790
  24.2252790  83.5588100  12.8337710  24.1203430  82.9440450  13.5599090
  24.0577010  83.0353990  12.0500720  24.3767110  82.2444900  28.8126940
  23.6112780  82.8129900  28.7281610  24.5583070  81.9521110  27.9195170
  27.4655520  82.6208130  13.4379700  26.9165620  83.0677430  14.0822440
  28.0874780  82.1157380  13.9617370  19.3552250  78.9803500  30.1741490
  19.3957590  78.6817370  31.0826720  20.2097750  79.3811110  30.0149010
  23.1330640  81.5799050  15.3345000  23.5547060  81.4138920  16.1776390
  23.2581480  80.7699280  14.8400140  21.2958060  77.5595600  28.1415980
  20.7654520  77.0686550  27.5139320  21.9646130  77.9879800  27.6073910
  25.6458280  80.6036660  12.5822100  26.1663940  79.8885680  12.2163250
  26.2926680  81.2422530  12.8822610  30.1936120  82.0265060  27.9057170
  30.6077140  82.1810140  28.7547590  29.2587120  82.1520280  28.0682950
  30.6658290  79.3661220  29.9096320  31.2479060  78.6113540  29.8216800
  30.8420060  79.8968660  29.1327800  21.7830360  74.5257970  28.2213270
  21.6887230  73.9078720  27.4964140  21.2027750  75.2524260  27.9943180
  24.5491800  73.0831210  25.2540660  24.1009100  73.1055470  24.4086210
  23.9157000  72.6850230  25.8510960  24.9551350  81.9785540  25.8753100
  25.3739460  82.8218270  25.7029340  24.0359980  82.1157580  25.6459880
  27.2915250  79.7101720  27.2590940  27.4111460  79.1142860  27.9985780
  28.1509250  79.7471410  26.8392240  29.6303150  80.2638910  25.8353450
  29.1038370  80.7881530  25.2318590  29.9734490  80.8966300  26.4663180
  22.0289540  77.6532280  12.2803160  21.8278600  76.7899640  12.6416500
  21.8581590  77.5665640  11.3424760  24.0584020  76.2523070  28.5166760
  24.6483710  75.9438920  29.2044580  23.2404260  75.7802820  28.6726660
  28.8777450  75.8688880  28.7499780  28.1892970  75.2070420  28.6849770
  29.5983470  75.4227150  29.1948240  29.5077850  72.4640510  14.8090040
  29.7880140  71.6208410  15.1649460  28.7343580  72.6963620  15.3228790
  20.8272340  74.7532900  12.2681040  21.1298240  74.7600330  11.3600190
  21.5666930  74.4030760  12.7648700  24.0457270  73.6967520  13.2537240
  23.6979270  73.0191510  12.6739690  24.2470040  73.2357030  14.0680630
  33.8858570  81.7017240  15.4193950  34.6477480  82.2713890  15.5253640
  33.9012940  81.1344440  16.1902260  17.3862910  80.2255170  19.6501610
  16.7311750  79.9566810  19.0061310  18.2240860  80.1159650  19.2003590
  34.8918540  82.5567340  20.2635880  35.2627370  81.7734660  19.8571850
  35.5320470  83.2456440  20.0853180  33.9377740  81.9951610  12.5766470
  34.2126580  82.9030490  12.4485690  33.7488480  81.9314140  13.5128460
  30.3353350  75.0196460  13.8720100  30.7538230  74.8327440  13.0316760
  30.0289410  74.1675510  14.1823030  33.8343080  79.9320600  17.5695900
  33.4586680  79.1648530  17.1377190  33.1046200  80.3143300  18.0570830
  18.4238840  80.6107740  24.1904950  18.7911880  80.5235140  25.0700970
  17.8549660  79.8474290  24.0911810  33.2242700  79.0792120  27.2035420
  32.9928790  78.8504870  26.3033370  33.4847250  79.9991670  27.1580310
  17.9754840  77.5216830  28.0963370  17.0810890  77.4883590  28.4357080
  18.5152390  77.7203620  28.8614620  31.6630770  74.3048550  29.9815120
  32.5400950  74.3131950  30.3649120  31.6751610  73.5679390  29.3707470
  16.6000990  77.4354100  15.5926940  15.6965070  77.6984300  15.4178600
  17.0841610  77.7065270  14.8126900  33.1094040  78.1578090  20.8703140
  33.6331520  77.6640740  20.2393310  33.6953460  78.2928450  21.6150710
  33.2883760  78.2417960  24.3922690  32.3386470  78.2081500  24.5067680
  33.4696770  79.1518070  24.1572460  19.1428200  76.4919640  13.5021320
  19.8519900  76.0702860  13.0168600  18.4268140  76.5594870  12.8704670
  18.7902360  72.5458970  12.5423970  19.5130490  73.0867910  12.8605190
  19.0626880  72.2722390  11.6665510  32.5994010  77.4151440  16.8095550
  33.0953130  77.1822310  17.5944430  32.4010080  76.5763280  16.3933190
  18.4794550  71.7965160  22.4446590  19.1270740  71.2462540  22.0041750
  18.8996390  72.0508310  23.2662400  34.0281170  76.0512390  19.3433230
  33.9180450  75.8968430  20.2815500  34.7888760  75.5233330  19.1008640
  32.3746890  71.9906520  25.8016230  33.0119110  72.6040660  26.1675420
  32.5221780  72.0267180  24.8565460  34.9171440  73.8820310  12.5839370
  35.8420750  73.7501490  12.3757660  34.8947230  73.9613130  13.5375820
  34.9909930  74.6530970  15.2096080  34.1961430  74.5876090  15.7388990
  35.1953210  75.5881610  15.1981430  18.2326550  71.9520830  25.1871910
  17.8841370  72.4084650  25.9530090  17.9014250  71.0577960  25.2694340
  25.7451370  73.1432710  28.7091330  25.6840260  73.7354540  29.4586740
  26.6851750  73.0358670  28.5641590  28.3825930  72.8002770  28.3483620
  28.9966340  73.1182060  27.6864700  28.9275490  72.3151360  28.9679480
  18.9047190  71.4797030  28.4622680  19.4530180  71.2985080  27.6988790
  18.9702500  70.6891140  28.9978990  29.1233970  71.3634910  24.6752910
  28.2493810  71.6970020  24.4725840  29.0144720  70.8908090  25.5004780
  30.0305950  73.5705780  26.0594630  29.7019310  72.7557540  25.6796360
  30.9788250  73.5275590  25.9360320  26.8708790  72.2804750  23.6145820
  26.0880580  72.7550250  23.8942580  26.5771720  71.3759580  23.5059000
  31.4229860  72.9827850  21.6594910  31.8637950  72.9272950  20.8116510
  31.1537450  73.8985860  21.7305090  33.2868430  72.6143090  19.6703730
  33.2256830  71.6704310  19.5234750  34.0660460  72.7223180  20.2157190
  18.2149200  72.5852230  16.1359540  18.9728560  72.6981110  15.5623570
  17.7526370  73.4221430  16.0902970  24.7563010  74.6991500  19.1261850
  23.9437520  74.3248390  18.7857730  25.2604650  73.9436580  19.4283040
  29.2587990  71.3633950  20.3644920  29.8617360  71.9354160  20.8393440
  28.5180980  71.9273390  20.1418820  32.4022590  71.7655510  15.6385200
  32.5973220  72.6638960  15.9052630  31.6152460  71.5342590  16.1318150
  20.5874350  73.1116280  14.6761510  21.1167110  72.3246080  14.5469460
  21.2202670  73.7907470  14.9097040  22.7812190  72.8491420  17.7306900
  22.1514930  72.1478730  17.8977030  22.2417330  73.6095550  17.5140060
  22.9067750  72.1275400  30.1659390  22.6252020  72.6309000  29.4020210
  23.2887450  71.3297150  29.8001520  29.5083210  71.5428980  30.7439860
  29.3948660  71.8623590  31.6391380  30.3252950  71.9441490  30.4477140
  26.5459400  81.3400470   2.9883870  25.7701500  80.8600910   3.2782440
  27.1972330  80.6606120   2.8140030  20.5625230  81.6520280   3.8659630
  19.7310110  81.3968990   4.2656140  21.1706210  81.7231050   4.6017550
  16.9350190  79.2127820   3.5341720  17.5066300  78.4450020   3.5345360
  16.9351730  79.5116580   2.6248330  25.9868390  84.0157660   2.9954030
  25.9176670  83.0747600   2.8343160  26.7488250  84.1059070   3.5676600
  18.1775060  74.6212180   5.3210650  17.9977900  73.7237930   5.6013410
  17.7755140  75.1684050   5.9957600  27.0173560  76.8228040   3.2222960
  27.3938380  75.9499920   3.1096630  26.9193070  77.1586740   2.3313400
  18.7961730  77.1172680   3.9292990  19.4771840  77.3811050   4.5480390
  18.4809780  76.2773550   4.2631000  22.9886300  78.1640040   3.0165580
  23.4964520  78.6621010   3.6570600  23.5199540  77.3875240   2.8404940
  35.0897230  76.3345230   6.7194930  34.3849400  76.7226940   6.2010040
  35.3555150  77.0295520   7.3215860  21.2722400  72.8038600   7.2829000
  21.2740840  73.3210990   6.4774900  20.4426710  72.3268780   7.2598930
  22.5225250  82.4433780   5.4602500  22.1894630  83.0702700   6.1023570
  22.6991930  82.9695660   4.6804170  31.0359160  76.2578860   2.9278840
  30.3314730  76.5463750   3.5081950  31.3971320  77.0678970   2.5678400
  20.9537730  74.5148560   5.2899450  21.2954540  75.3590610   4.9953320
  20.0153540  74.6632300   5.4064790  34.1046080  75.7033650   3.3188050
  33.1570990  75.7372630   3.4503480  34.4296070  76.5172600   3.7037410
  29.5866120  82.6227960   5.2334110  30.0034910  82.4088070   4.3987570
  30.3105940  82.8800750   5.8042730  33.5328220  81.0215180   5.3250350
  32.7046850  81.0908270   4.8500480  34.1278700  81.6069490   4.8566180
  30.4970230  77.8084500   6.2705220  30.0841410  78.6338210   6.5245210
  29.7646180  77.2229540   6.0781580  21.3431640  77.3687610   4.9122930
  21.8946230  77.4782950   4.1376180  21.8575150  77.7425210   5.6278160
  21.0174370  80.8906970   8.5228270  20.8782140  81.7629770   8.8915670
  20.1355730  80.5479780   8.3776210  16.9693020  82.6604520   4.4399180
  17.0473440  82.7953290   3.4954900  17.5834700  81.9520410   4.6327300
  34.0226800  76.8601080  10.1527340  33.4071070  77.3680750   9.6242800
  33.7023220  75.9599410  10.0953280  17.0252540  83.7018690   6.9793640
  17.1883580  83.2324050   6.1613010  17.4904990  83.1942250   7.6442480
  21.7971310  72.8324450   2.0154210  21.3539460  73.6133990   1.6838730
  22.3556300  73.1554340   2.7225150  26.0841120  75.6992970   7.6189530
  25.6220490  75.9075990   8.4309470  25.6819230  74.8852320   7.3160200
  31.0845630  76.9201920   8.7486190  30.2339220  76.6207670   9.0695260
  30.9247420  77.1643930   7.8370010  28.1795340  78.4203670  10.8484980
  28.5048750  77.5867420  10.5087210  28.9675670  78.9432190  10.9963310
  23.8347210  73.3771780   3.8743810  24.1319540  74.2834610   3.7935830
  24.3832770  72.8890560   3.2603380  24.0284740  78.8543600  10.4095730
  23.9328340  77.9138330  10.2596130  24.8716720  79.0758670  10.0143800
  19.1595280  75.2657270   8.5629510  18.7658670  76.1132480   8.7702290
  18.4713680  74.6283640   8.7538150  25.7340330  75.3492240  11.6326250
  25.0438650  75.1564440  12.2672340  26.4772630  75.6326880  12.1650550
  16.4612330  73.1885730   2.5959590  16.1725380  73.7588590   3.3084570
  17.2058090  72.7090180   2.9590820  28.0103300  79.1890680   4.4680170
  27.2784420  79.6977490   4.8170270  27.6127640  78.3720660   4.1668950
  24.4480690  75.8644880   2.8732660  24.4516750  75.4234830   2.0237200
  25.3431810  76.1862210   2.9804480  28.4729210  74.6424360   3.8803110
  28.4901950  75.0933010   4.7244960  28.2244790  73.7430000   4.0936550
  31.8999960  72.0556540   9.7189490  32.2245730  71.3246200  10.2447470
  31.9356470  71.7370180   8.8170480  18.5991520  83.0770120   9.1389450
  18.2146310  82.4363790   9.7372410  18.9103710  83.7806240   9.7084180
  24.7488660  79.9246660   4.6198070  25.1158790  79.4505230   5.3659410
  24.5593720  80.7988230   4.9606410  22.5388030  78.9655300   6.9382280
  22.2345100  79.8447280   7.1632640  23.4934490  79.0255090   6.9739720
  31.8257800  82.1681650   3.3275520  32.5456920  82.6636940   2.9371630
  31.6239620  81.4899540   2.6829390  27.2076600  82.2390710   9.2144520
  27.1413910  81.3186380   8.9602110  26.5781740  82.3366150   9.9289160
  18.5951760  79.8058040   8.0853640  18.2366700  80.4711890   8.6726980
  18.3006320  78.9741590   8.4566260  21.7964880  80.2642280  10.9693190
  21.4965020  80.4099460  10.0721010  22.5676120  79.7047570  10.8766580
  33.3504540  81.7018620   8.3116900  32.6252730  82.2947400   8.1146290
  33.8780000  81.6942160   7.5130270  17.1700330  73.2951280   8.7625740
  16.4558850  73.4948200   9.3678350  17.5895370  72.5190850   9.1340540
  28.6639110  75.7873590   6.5127190  29.0319930  74.9668800   6.8406760
  27.8037310  75.8475480   6.9282840  25.6241100  78.4413180   6.7365160
  26.1226350  78.9159000   7.4017010  25.7664050  77.5176700   6.9435190
  32.8307960  74.6581140   7.5793550  32.3281560  75.3986540   7.9187360
  33.6464620  75.0465140   7.2630340  17.3229170  80.8373910  10.5047930
  17.8268190  80.2581190  11.0764160  16.5836590  81.1214140  11.0424300
  24.3767110  82.2444900  10.0383450  23.6112780  82.8129900   9.9538120
  24.5583070  81.9521110   9.1451680  19.3552250  78.9803500  11.3998000
  19.3957590  78.6817370  12.3083230  20.2097750  79.3811110  11.2405520
  21.2958060  77.5595600   9.3672490  20.7654520  77.0686550   8.7395830
  21.9646130  77.9879800   8.8330420  30.1936120  82.0265060   9.1313680
  30.6077140  82.1810140   9.9804100  29.2587120  82.1520280   9.2939460
  30.6658290  79.3661220  11.1352830  31.2479060  78.6113540  11.0473310
  30.8420060  79.8968660  10.3584310  21.7830360  74.5257970   9.4469780
  21.6887230  73.9078720   8.7220650  21.2027750  75.2524260   9.2199690
  24.5491800  73.0831210   6.4797170  24.1009100  73.1055470   5.6342720
  23.9157000  72.6850230   7.0767470  24.9551350  81.9785540   7.1009610
  25.3739460  82.8218270   6.9285850  24.0359980  82.1157580   6.8716390
  27.2915250  79.7101720   8.4847450  27.4111460  79.1142860   9.2242290
  28.1509250  79.7471410   8.0648750  29.6303150  80.2638910   7.0609960
  29.1038370  80.7881530   6.4575100  29.9734490  80.8966300   7.6919690
  24.0584020  76.2523070   9.7423270  24.6483710  75.9438920  10.4301090
  23.2404260  75.7802820   9.8983170  28.8777450  75.8688880   9.9756290
  28.1892970  75.2070420   9.9106280  29.5983470  75.4227150  10.4204750
  18.4238840  80.6107740   5.4161460  18.7911880  80.5235140   6.2957480
  17.8549660  79.8474290   5.3168320  33.2242700  79.0792120   8.4291930
  32.9928790  78.8504870   7.5289880  33.4847250  79.9991670   8.3836820
  17.9754840  77.5216830   9.3219880  17.0810890  77.4883590   9.6613590
  18.5152390  77.7203620  10.0871130  31.6630770  74.3048550  11.2071630
  32.5400950  74.3131950  11.5905630  31.6751610  73.5679390  10.5963980
  33.2883760  78.2417960   5.6179200  32.3386470  78.2081500   5.7324190
  33.4696770  79.1518070   5.3828970  18.4794550  71.7965160   3.6703100
  19.1270740  71.2462540   3.2298260  18.8996390  72.0508310   4.4918910
  32.3746890  71.9906520   7.0272740  33.0119110  72.6040660   7.3931930
  32.5221780  72.0267180   6.0821970  18.2326550  71.9520830   6.4128420
  17.8841370  72.4084650   7.1786600  17.9014250  71.0577960   6.4950850
  25.7451370  73.1432710   9.9347840  25.6840260  73.7354540  10.6843250
  26.6851750  73.0358670   9.7898100  28.3825930  72.8002770   9.5740130
  28.9966340  73.1182060   8.9121210  28.9275490  72.3151360  10.1935990
  18.9047190  71.4797030   9.6879190  19.4530180  71.2985080   8.9245300
  18.9702500  70.6891140  10.2235500  29.1233970  71.3634910   5.9009420
  28.2493810  71.6970020   5.6982350  29.0144720  70.8908090   6.7261290
  30.0305950  73.5705780   7.2851140  29.7019310  72.7557540   6.9052870
  30.9788250  73.5275590   7.1616830  26.8708790  72.2804750   4.8402330
  26.0880580  72.7550250   5.1199090  26.5771720  71.3759580   4.7315510
  31.4229860  72.9827850   2.8851420  31.8637950  72.9272950   2.0373020
  31.1537450  73.8985860   2.9561600  22.9067750  72.1275400  11.3915900
  22.6252020  72.6309000  10.6276720  23.2887450  71.3297150  11.0258030
  29.5083210  71.5428980  11.9696370  29.3948660  71.8623590  12.8647890
  30.3252950  71.9441490  11.6733650  28.4141360  60.7877960  76.2048560
  28.3335410  59.8732570  75.9340270  28.0005780  61.2845030  75.4988270
  26.5459400  62.5656980  78.0857830  25.7701500  62.0857420  78.3756400
  27.1972330  61.8862630  77.9113990  30.5666830  66.9717170  76.8656960
  30.1048360  66.2004410  77.1944130  31.3792380  66.9983240  77.3709410
  18.9717180  57.8378680  72.7475980  18.0833880  58.1794650  72.6455860
  19.2558370  57.6379000  71.8556810  16.9350190  60.4384330  78.6315680
  17.5066300  59.6706530  78.6319320  16.9351730  60.7373090  77.7222290
  26.7930140  69.2575180  76.4860950  26.1741580  69.7132680  75.9155390
  27.6481920  69.4126640  76.0850650  25.9868390  65.2414170  78.0927990
  25.9176670  64.3004110  77.9317120  26.7488250  65.3315580  78.6650560
  27.0173560  58.0484550  78.3196920  27.3938380  57.1756430  78.2070590
  26.9193070  58.3843250  77.4287360  21.1478570  56.4210180  73.7814360
  21.2545320  57.3213910  74.0883120  20.2370930  56.3728150  73.4909010
  30.7997680  55.5434990  75.2525260  31.6207300  55.0531560  75.2950740
  30.8331760  56.1332650  76.0057100  22.9886300  59.3896550  78.1139540
  23.4964520  59.8877520  78.7544560  23.5199540  58.6131750  77.9378900
  27.6593490  64.1414420  73.8792860  27.0410760  64.6063870  73.3155580
  28.1716740  64.8341900  74.2962370  31.0359160  57.4835370  78.0252800
  30.3314730  57.7720260  78.6055910  31.3971320  58.2935480  77.6652360
  17.0276690  64.8270950  71.2532490  16.6504670  65.3158050  70.5217390
  17.2849760  65.4996230  71.8839020  34.1046080  56.9290160  78.4162010
  33.1570990  56.9629140  78.5477440  34.4296070  57.7429110  78.8011370
  24.6365620  53.2287340  76.7118000  24.9440600  52.6734230  75.9953500
  23.7066320  53.3631800  76.5290990  31.4826100  65.6670850  74.0915630
  31.3722430  64.7245180  74.2165050  31.4794350  66.0286490  74.9778390
  27.0246380  61.2936170  73.4478120  26.0975660  61.2273550  73.6766590
  27.1771200  62.2316300  73.3333360  27.0115460  57.5653170  70.4445280
  26.0719130  57.7267130  70.5297740  27.3298720  58.2838850  69.8981270
  31.0543670  62.8556470  73.9513370  30.4356090  62.5176020  73.3039670
  31.0368120  62.2116230  74.6592560  22.6303020  61.8200910  76.2297850
  22.2260020  61.1078160  75.7343750  22.7166140  61.4754150  77.1185890
  23.0984720  65.5068470  78.3937060  22.8013010  64.9013940  77.7144840
  24.0484540  65.5445780  78.2826420  29.2308370  62.0943280  70.9586120
  29.6701650  61.2565710  70.8123940  29.9436790  62.7272680  71.0450260
  27.3403750  67.0339350  74.9267360  27.7799660  67.7763680  74.5122750
  27.2790640  67.2765920  75.8506320  32.8125510  53.3486090  69.2727160
  32.4998170  53.4412920  70.1726230  33.5737980  53.9267120  69.2224590
  19.3307650  60.7145890  73.7304500  19.2105250  61.4407980  73.1185770
  19.0208540  59.9448800  73.2532410  18.2140650  65.5861220  75.9479320
  17.8068730  65.7275810  75.0932920  19.1053660  65.3021380  75.7450530
  30.0073930  70.0208470  72.2830370  29.8475070  69.7311410  73.1812200
  29.8420640  69.2448600  71.7475600  22.4862310  69.8007000  74.0601990
  22.3104790  68.8842540  73.8469790  21.6318050  70.1594290  74.2999790
  29.7100060  67.5296030  70.8428370  29.0165220  67.5273320  70.1830650
  30.4522920  67.1055350  70.4122540  29.2749990  69.1558740  74.9176860
  29.7306940  68.3748120  75.2315480  29.6142510  69.8665560  75.4618040
  21.7971310  54.0580960  77.1128170  21.3539460  54.8390500  76.7812690
  22.3556300  54.3810850  77.8199110  24.9130130  53.6791660  71.9934000
  24.2884310  53.6751530  72.7187310  24.8260250  52.8122620  71.5969970
  21.5885530  59.1814530  74.8409420  21.3626450  58.9651700  75.7456040
  20.8078060  59.6142990  74.4955390  28.8183290  59.1877900  73.4400070
  28.2192180  59.9113700  73.2563690  29.3662900  59.1254680  72.6576520
  27.4248160  57.8241440  75.4703350  27.8177730  58.1413640  74.6572040
  27.7865010  56.9453320  75.5847870  16.4612330  54.4142240  77.6933550
  16.1725380  54.9845100  78.4058530  17.2058090  53.9346690  78.0564780
  16.6482560  58.3562360  68.9036270  16.5657230  59.2993120  69.0451260
  16.2965620  58.2137270  68.0248620  24.4480690  57.0901390  77.9706620
  24.4516750  56.6491340  77.1211160  25.3431810  57.4118720  78.0778440
  20.2983070  56.9727880  76.9300830  19.9583120  57.4503110  77.6867880
  19.5360390  56.5193000  76.5701930  24.5100840  58.0913470  70.9613380
  24.6313660  58.0499950  71.9099200  24.1249350  58.9537620  70.8060110
  23.5222340  60.4014610  70.3596680  22.9539240  59.9532860  69.7332590
  24.2311340  60.7607390  69.8261830  17.6129150  55.8946860  75.8465500
  17.3276070  55.5302530  76.6844120  17.5508010  55.1627320  75.2328640
  21.0669820  64.3972800  72.6323090  20.2932080  63.8570420  72.4721810
  21.7964450  63.8779410  72.2940850  31.8257800  63.3938160  78.4249480
  32.5456920  63.8893450  78.0345590  31.6239620  62.7156050  77.7803350
  27.2867740  54.7876120  72.5678870  26.4732350  54.2889290  72.4924180
  27.0929690  55.6274370  72.1515220  30.0016130  59.1595770  70.8641030
  30.8895750  59.4713000  70.6892370  29.9721220  58.2868020  70.4721610
  21.1107220  64.0653180  76.2701900  21.6285890  63.2621440  76.2158790
  20.6591240  64.0032320  77.1118730  25.9976720  65.3319460  71.5429200
  26.3392420  66.0761690  71.0472520  25.1689430  65.6450580  71.9054030
  32.2730400  60.4707610  70.3320890  32.1894120  60.9021830  69.4817330
  32.9924590  60.9305960  70.7647710  33.3017650  67.3249870  73.0603020
  32.6593810  66.6705490  73.3346740  32.9148310  67.7304960  72.2843690
  28.8804130  64.6535300  76.9074710  29.2327950  64.0563430  76.2476080
  27.9966460  64.3279530  77.0782960  24.9667410  65.4132990  74.3145120
  25.6538540  65.9602200  74.6952710  24.1799830  65.9573720  74.3494730
  17.1059810  61.0305810  69.8062200  17.9754660  61.3130610  70.0898120
  16.6150130  61.8441680  69.6911010  24.2694620  62.4179020  73.9270480
  24.7257400  63.2284270  74.1530670  23.9182830  62.1002160  74.7588970
  20.1706400  52.7616670  74.3993000  20.0421030  52.7534570  75.3477920
  19.3468420  53.0999760  74.0484010  31.6915030  66.2166330  69.5979370
  31.4652610  65.4996770  70.1904010  31.3011230  65.9678770  68.7601120
  17.4731060  70.2433190  70.3723830  17.8328700  70.8422530  69.7181100
  17.3323400  70.7893080  71.1458860  31.2731280  64.1338270  71.2593530
  30.9852980  64.5950960  72.0471410  32.0683450  63.6736040  71.5277750
  23.4899680  67.6264390  71.1897500  23.4809780  68.3594080  70.5742010
  22.5698040  67.3795970  71.2824460  19.0906320  62.8479280  71.9344260
  18.4834270  63.5878180  71.9439560  19.5655670  62.9378640  71.1082460
  32.0301140  55.9687040  72.4188710  31.4014300  56.0732710  71.7046940
  31.5353060  56.1883820  73.2082590  26.4759280  67.6892630  69.8522690
  26.5771260  67.4856620  68.9224670  25.5761020  67.4350910  70.0570470
  23.9985170  58.2472990  73.8346590  23.2901320  58.7159330  74.2760200
  24.2829650  57.5895000  74.4691780  28.0300600  54.9723650  75.2742380
  27.9068380  54.9909780  74.3251890  28.9785160  55.0202590  75.3940780
  25.1177390  70.2078950  74.5470360  25.3718890  70.1700340  73.6249730
  24.1689870  70.0812280  74.5398610  22.2020190  56.5558070  71.2097300
  23.0510720  56.9928220  71.1437490  21.8351460  56.8678330  72.0369360
  31.1229970  61.1270830  76.1228870  30.1820110  61.1421060  76.2976560
  31.4374040  60.3406790  76.5689170  21.1011610  62.8090430  69.6832830
  21.8674880  62.6971790  70.2458260  21.1786300  62.1128400  69.0309600
  19.7958370  60.2415500  70.3665720  19.8761960  59.2943010  70.4783120
  20.6878120  60.5722380  70.4726380  33.1255550  68.2979680  77.7983130
  33.2502970  69.1210850  78.2706940  33.9921110  68.0870410  77.4507280
  20.5973080  70.3910890  77.4700260  21.3335560  69.8426350  77.7408830
  20.9814000  71.2566900  77.3306250  17.4818560  66.4584460  73.3441770
  16.5558340  66.7005600  73.3347180  17.9474990  67.2858720  73.2226520
  23.7075390  69.5641200  69.2925830  24.5004000  69.8530030  68.8407620
  23.1879740  69.1333370  68.6138310  32.7605560  68.7911330  70.7162570
  32.4747070  68.3776470  69.9016750  32.5625110  69.7199040  70.5963090
  24.2252790  64.7844610  69.1568180  24.1203430  64.1696960  69.8829560
  24.0577010  64.2610500  68.3731190  27.4655520  63.8464640  69.7610170
  26.9165620  64.2933940  70.4052910  28.0874780  63.3413890  70.2847840
  23.1330640  62.8055560  71.6575470  23.5547060  62.6395430  72.5006860
  23.2581480  61.9955790  71.1630610  25.6458280  61.8293170  68.9052570
  26.1663940  61.1142190  68.5393720  26.2926680  62.4679040  69.2053080
  22.0289540  58.8788790  68.6033630  21.8278600  58.0156150  68.9646970
  21.8581590  58.7922150  67.6655230  29.5077850  53.6897020  71.1320510
  29.7880140  52.8464920  71.4879930  28.7343580  53.9220130  71.6459260
  20.8272340  55.9789410  68.5911510  21.1298240  55.9856840  67.6830660
  21.5666930  55.6287270  69.0879170  24.0457270  54.9224030  69.5767710
  23.6979270  54.2448020  68.9970160  24.2470040  54.4613540  70.3911100
  26.2106310  69.9104780  71.1954310  27.1057100  70.2489750  71.2173070
  26.2423940  69.1884190  70.5678590  19.8502470  65.2831830  69.4241310
  20.2877340  65.8261500  70.0798890  20.3350200  64.4578780  69.4337650
  17.0648270  68.0720860  76.8761570  17.3951280  67.2041920  76.6440210
  17.4939270  68.2779380  77.7066530  21.6610190  66.4029870  74.5363540
  21.3605730  66.2794840  75.4367450  21.5547680  65.5438460  74.1279270
  34.4302110  66.1826270  69.2390220  33.5995070  66.2502920  69.7097450
  34.6073940  67.0730390  68.9357080  33.8858570  62.9273750  71.7424420
  34.6477480  63.4970400  71.8484110  33.9012940  62.3600950  72.5132730
  17.3862910  61.4511680  75.9732080  16.7311750  61.1823320  75.3291780
  18.2240860  61.3416160  75.5234060  34.8918540  63.7823850  76.5866350
  35.2627370  62.9991170  76.1802320  35.5320470  64.4712950  76.4083650
  33.9377740  63.2208120  68.8996940  34.2126580  64.1287000  68.7716160
  33.7488480  63.1570650  69.8358930  30.3353350  56.2452970  70.1950570
  30.7538230  56.0583950  69.3547230  30.0289410  55.3932020  70.5053500
  33.8343080  61.1577110  73.8926370  33.4586680  60.3905040  73.4607660
  33.1046200  61.5399810  74.3801300  16.6000990  58.6610610  71.9157410
  15.6965070  58.9240810  71.7409070  17.0841610  58.9321780  71.1357370
  33.1094040  59.3834600  77.1933610  33.6331520  58.8897250  76.5623780
  33.6953460  59.5184960  77.9381180  19.1428200  57.7176150  69.8251790
  19.8519900  57.2959370  69.3399070  18.4268140  57.7851380  69.1935140
  18.7902360  53.7715480  68.8654440  19.5130490  54.3124420  69.1835660
  19.0626880  53.4978900  67.9895980  32.5994010  58.6407950  73.1326020
  33.0953130  58.4078820  73.9174900  32.4010080  57.8019790  72.7163660
  34.0281170  57.2768900  75.6663700  33.9180450  57.1224940  76.6045970
  34.7888760  56.7489840  75.4239110  34.9171440  55.1076820  68.9069840
  35.8420750  54.9758000  68.6988130  34.8947230  55.1869640  69.8606290
  34.9909930  55.8787480  71.5326550  34.1961430  55.8132600  72.0619460
  35.1953210  56.8138120  71.5211900  31.9328350  69.9179030  75.5264940
  32.5287420  69.5963600  74.8499360  32.1906500  69.4450850  76.3178210
  31.4229860  54.2084360  77.9825380  31.8637950  54.1529460  77.1346980
  31.1537450  55.1242370  78.0535560  33.2868430  53.8399600  75.9934200
  33.2256830  52.8960820  75.8465220  34.0660460  53.9479690  76.5387660
  17.5921180  69.9791960  74.9558150  17.4243220  69.3462640  75.6540040
  16.7255690  70.1851360  74.6052340  18.2149200  53.8108740  72.4590010
  18.9728560  53.9237620  71.8854040  17.7526370  54.6477940  72.4133440
  24.7563010  55.9248010  75.4492320  23.9437520  55.5504900  75.1088200
  25.2604650  55.1693090  75.7513510  29.2587990  52.5890460  76.6875390
  29.8617360  53.1610670  77.1623910  28.5180980  53.1529900  76.4649290
  32.4022590  52.9912020  71.9615670  32.5973220  53.8895470  72.2283100
  31.6152460  52.7599100  72.4548620  19.1983880  68.6725190  72.4008290
  18.6731500  69.0533220  71.6970250  19.1228460  69.2975960  73.1218000
  20.5874350  54.3372790  70.9991980  21.1167110  53.5502590  70.8699930
  21.2202670  55.0163980  71.2327510  22.7812190  54.0747930  74.0537370
  22.1514930  53.3735240  74.2207500  22.2417330  54.8352060  73.8370530
  33.9549200  70.2312730  73.7222230  34.1301390  69.5450470  73.0783150
  33.2570770  70.7559780  73.3298900  21.7976850  70.6207570  71.2757540
  22.5295670  70.3366850  70.7281430  22.0570520  70.3820850  72.1656920
  20.9591640  66.7372300  71.2803870  20.3300520  67.2057400  71.8289700
  21.0739470  65.8921520  71.7150060  28.4141360  60.7877960  57.4305070
  28.3335410  59.8732570  57.1596780  28.0005780  61.2845030  56.7244780
  26.5459400  62.5656980  59.3114340  25.7701500  62.0857420  59.6012910
  27.1972330  61.8862630  59.1370500  20.5625230  62.8776790  60.1890100
  19.7310110  62.6225500  60.5886610  21.1706210  62.9487560  60.9248020
  30.5666830  66.9717170  58.0913470  30.1048360  66.2004410  58.4200640
  31.3792380  66.9983240  58.5965920  20.5426490  66.9116880  60.3848120
  20.8454530  66.0214620  60.2058340  21.2870080  67.4687100  60.1570370
  18.9717180  57.8378680  53.9732490  18.0833880  58.1794650  53.8712370
  19.2558370  57.6379000  53.0813320  16.9350190  60.4384330  59.8572190
  17.5066300  59.6706530  59.8575830  16.9351730  60.7373090  58.9478800
  26.7930140  69.2575180  57.7117460  26.1741580  69.7132680  57.1411900
  27.6481920  69.4126640  57.3107160  25.9868390  65.2414170  59.3184500
  25.9176670  64.3004110  59.1573630  26.7488250  65.3315580  59.8907070
  18.1775060  55.8468690  61.6441120  17.9977900  54.9494440  61.9243880
  17.7755140  56.3940560  62.3188070  27.0173560  58.0484550  59.5453430
  27.3938380  57.1756430  59.4327100  26.9193070  58.3843250  58.6543870
  18.7961730  58.3429190  60.2523460  19.4771840  58.6067560  60.8710860
  18.4809780  57.5030060  60.5861470  22.9886300  59.3896550  59.3396050
  23.4964520  59.8877520  59.9801070  23.5199540  58.6131750  59.1635410
  35.0897230  57.5601740  63.0425400  34.3849400  57.9483450  62.5240510
  35.3555150  58.2552030  63.6446330  21.2722400  54.0295110  63.6059470
  21.2740840  54.5467500  62.8005370  20.4426710  53.5525290  63.5829400
  27.6593490  64.1414420  55.1049370  27.0410760  64.6063870  54.5412090
  28.1716740  64.8341900  55.5218880  22.5225250  63.6690290  61.7832970
  22.1894630  64.2959210  62.4254040  22.6991930  64.1952170  61.0034640
  31.0359160  57.4835370  59.2509310  30.3314730  57.7720260  59.8312420
  31.3971320  58.2935480  58.8908870  20.9537730  55.7405070  61.6129920
  21.2954540  56.5847120  61.3183790  20.0153540  55.8888810  61.7295260
  21.7344350  65.6371090  63.5982150  22.3518350  66.3122170  63.3166600
  20.8737470  66.0459070  63.5069650  17.0276690  64.8270950  52.4789000
  16.6504670  65.3158050  51.7473900  17.2849760  65.4996230  53.1095530
  32.6521940  67.1010500  61.5136790  31.9685460  67.7709610  61.5053460
  33.1916230  67.2991150  60.7481650  34.1046080  56.9290160  59.6418520
  33.1570990  56.9629140  59.7733950  34.4296070  57.7429110  60.0267880
  30.1880680  68.9454630  60.2281970  30.2007840  68.5416920  59.3604230
  29.6355900  69.7201920  60.1243400  31.4826100  65.6670850  55.3172140
  31.3722430  64.7245180  55.4421560  31.4794350  66.0286490  56.2034900
  29.5866120  63.8484470  61.5564580  30.0034910  63.6344580  60.7218040
  30.3105940  64.1057260  62.1273200  27.0246380  61.2936170  54.6734630
  26.0975660  61.2273550  54.9023100  27.1771200  62.2316300  54.5589870
  33.5328220  62.2471690  61.6480820  32.7046850  62.3164780  61.1730950
  34.1278700  62.8326000  61.1796650  31.0543670  62.8556470  55.1769880
  30.4356090  62.5176020  54.5296180  31.0368120  62.2116230  55.8849070
  30.4970230  59.0341010  62.5935690  30.0841410  59.8594720  62.8475680
  29.7646180  58.4486050  62.4012050  22.6303020  61.8200910  57.4554360
  22.2260020  61.1078160  56.9600260  22.7166140  61.4754150  58.3442400
  23.0984720  65.5068470  59.6193570  22.8013010  64.9013940  58.9401350
  24.0484540  65.5445780  59.5082930  21.3431640  58.5944120  61.2353400
  21.8946230  58.7039460  60.4606650  21.8575150  58.9681720  61.9508630
  31.1870330  69.0800340  63.2816670  30.7100890  69.8872530  63.0889280
  30.5032120  68.4278670  63.4342880  22.1903150  65.2450160  66.2701370
  21.2931680  65.4690130  66.5174770  22.2156020  65.3685100  65.3212770
  29.2308370  62.0943280  52.1842630  29.6701650  61.2565710  52.0380450
  29.9436790  62.7272680  52.2706770  21.0174370  62.1163480  64.8458740
  20.8782140  62.9886280  65.2146140  20.1355730  61.7736290  64.7006680
  27.3403750  67.0339350  56.1523870  27.7799660  67.7763680  55.7379260
  27.2790640  67.2765920  57.0762830  22.8154720  68.0585180  67.0543890
  22.7870150  68.4628130  66.1872320  22.6519690  67.1295540  66.8915490
  19.3307650  60.7145890  54.9561010  19.2105250  61.4407980  54.3442280
  19.0208540  59.9448800  54.4788920  34.7669540  68.8412280  68.3508060
  35.2429260  69.3195170  69.0297140  35.3876700  68.7729770  67.6253560
  16.9693020  63.8861030  60.7629650  17.0473440  64.0209800  59.8185370
  17.5834700  63.1776920  60.9557770  18.2140650  65.5861220  57.1735830
  17.8068730  65.7275810  56.3189430  19.1053660  65.3021380  56.9707040
  34.1702790  66.0325130  65.5108070  34.2965850  65.7937010  64.5925250
  34.2124170  65.2009670  65.9830150  28.0319530  69.7353130  64.0802880
  28.5464200  69.6461140  64.8825310  27.1888610  70.0812830  64.3730790
  30.0073930  70.0208470  53.5086880  29.8475070  69.7311410  54.4068710
  29.8420640  69.2448600  52.9732110  22.4862310  69.8007000  55.2858500
  22.3104790  68.8842540  55.0726300  21.6318050  70.1594290  55.5256300
  29.7100060  67.5296030  52.0684880  29.0165220  67.5273320  51.4087160
  30.4522920  67.1055350  51.6379050  29.2749990  69.1558740  56.1433370
  29.7306940  68.3748120  56.4571990  29.6142510  69.8665560  56.6874550
  34.0226800  58.0857590  66.4757810  33.4071070  58.5937260  65.9473270
  33.7023220  57.1855920  66.4183750  17.0252540  64.9275200  63.3024110
  17.1883580  64.4580560  62.4843480  17.4904990  64.4198760  63.9672950
  21.7971310  54.0580960  58.3384680  21.3539460  54.8390500  58.0069200
  22.3556300  54.3810850  59.0455620  26.0841120  56.9249480  63.9420000
  25.6220490  57.1332500  64.7539940  25.6819230  56.1108830  63.6390670
  31.0845630  58.1458430  65.0716660  30.2339220  57.8464180  65.3925730
  30.9247420  58.3900440  64.1600480  28.1795340  59.6460180  67.1715450
  28.5048750  58.8123930  66.8317680  28.9675670  60.1688700  67.3193780
  23.8347210  54.6028290  60.1974280  24.1319540  55.5091120  60.1166300
  24.3832770  54.1147070  59.5833850  21.5885530  59.1814530  56.0665930
  21.3626450  58.9651700  56.9712550  20.8078060  59.6142990  55.7211900
  28.8183290  59.1877900  54.6656580  28.2192180  59.9113700  54.4820200
  29.3662900  59.1254680  53.8833030  24.0284740  60.0800110  66.7326200
  23.9328340  59.1394840  66.5826600  24.8716720  60.3015180  66.3374270
  27.4248160  57.8241440  56.6959860  27.8177730  58.1413640  55.8828550
  27.7865010  56.9453320  56.8104380  19.1595280  56.4913780  64.8859980
  18.7658670  57.3388990  65.0932760  18.4713680  55.8540150  65.0768620
  25.7340330  56.5748750  67.9556720  25.0438650  56.3820950  68.5902810
  26.4772630  56.8583390  68.4881020  16.4612330  54.4142240  58.9190060
  16.1725380  54.9845100  59.6315040  17.2058090  53.9346690  59.2821290
  16.6482560  58.3562360  50.1292780  16.5657230  59.2993120  50.2707770
  16.2965620  58.2137270  49.2505130  28.0103300  60.4147190  60.7910640
  27.2784420  60.9234000  61.1400740  27.6127640  59.5977170  60.4899420
  24.4480690  57.0901390  59.1963130  24.4516750  56.6491340  58.3467670
  25.3431810  57.4118720  59.3034950  20.2983070  56.9727880  58.1557340
  19.9583120  57.4503110  58.9124390  19.5360390  56.5193000  57.7958440
  28.4729210  55.8680870  60.2033580  28.4901950  56.3189520  61.0475430
  28.2244790  54.9686510  60.4167020  23.5222340  60.4014610  51.5853190
  22.9539240  59.9532860  50.9589100  24.2311340  60.7607390  51.0518340
  31.8999960  53.2813050  66.0419960  32.2245730  52.5502710  66.5677940
  31.9356470  52.9626690  65.1400950  18.5991520  64.3026630  65.4619920
  18.2146310  63.6620300  66.0602880  18.9103710  65.0062750  66.0314650
  24.7488660  61.1503170  60.9428540  25.1158790  60.6761740  61.6889880
  24.5593720  62.0244740  61.2836880  17.6129150  55.8946860  57.0722010
  17.3276070  55.5302530  57.9100630  17.5508010  55.1627320  56.4585150
  22.5388030  60.1911810  63.2612750  22.2345100  61.0703790  63.4863110
  23.4934490  60.2511600  63.2970190  21.0669820  64.3972800  53.8579600
  20.2932080  63.8570420  53.6978320  21.7964450  63.8779410  53.5197360
  31.8257800  63.3938160  59.6505990  32.5456920  63.8893450  59.2602100
  31.6239620  62.7156050  59.0059860  27.2076600  63.4647220  65.5374990
  27.1413910  62.5442890  65.2832580  26.5781740  63.5622660  66.2519630
  21.1107220  64.0653180  57.4958410  21.6285890  63.2621440  57.4415300
  20.6591240  64.0032320  58.3375240  25.9976720  65.3319460  52.7685710
  26.3392420  66.0761690  52.2729030  25.1689430  65.6450580  53.1310540
  18.5951760  61.0314550  64.4084110  18.2366700  61.6968400  64.9957450
  18.3006320  60.1998100  64.7796730  21.7964880  61.4898790  67.2923660
  21.4965020  61.6355970  66.3951480  22.5676120  60.9304080  67.1997050
  27.1393330  66.2867790  65.2878790  27.1537870  65.3548750  65.0697700
  26.4318430  66.3727550  65.9268560  32.2730400  60.4707610  51.5577400
  32.1894120  60.9021830  50.7073840  32.9924590  60.9305960  51.9904220
  33.3504540  62.9275130  64.6347370  32.6252730  63.5203910  64.4376760
  33.8780000  62.9198670  63.8360740  33.3017650  67.3249870  54.2859530
  32.6593810  66.6705490  54.5603250  32.9148310  67.7304960  53.5100200
  28.8804130  64.6535300  58.1331220  29.2327950  64.0563430  57.4732590
  27.9966460  64.3279530  58.3039470  24.9667410  65.4132990  55.5401630
  25.6538540  65.9602200  55.9209220  24.1799830  65.9573720  55.5751240
  17.1059810  61.0305810  51.0318710  17.9754660  61.3130610  51.3154630
  16.6150130  61.8441680  50.9167520  24.2694620  62.4179020  55.1526990
  24.7257400  63.2284270  55.3787180  23.9182830  62.1002160  55.9845480
  26.5727230  67.9285360  62.3819290  27.2169450  68.1344740  63.0592710
  26.9356670  67.1673760  61.9290140  27.8459310  65.9317710  61.0996740
  28.4881540  65.2310870  61.2128910  28.3708660  66.7116150  60.9193630
  31.6915030  66.2166330  50.8235880  31.4652610  65.4996770  51.4160520
  31.3011230  65.9678770  49.9857630  29.6196930  66.7312610  64.3032800
  29.9553170  67.3179300  64.9810720  28.6997270  66.6005320  64.5330590
  17.4731060  70.2433190  51.5980340  17.8328700  70.8422530  50.9437610
  17.3323400  70.7893080  52.3715370  17.1700330  54.5207790  65.0856210
  16.4558850  54.7204710  65.6908820  17.5895370  53.7447360  65.4571010
  31.2731280  64.1338270  52.4850040  30.9852980  64.5950960  53.2727920
  32.0683450  63.6736040  52.7534260  17.4572920  68.5088050  66.0722740
  17.5664040  67.5682790  65.9318130  16.8053480  68.7742800  65.4236470
  25.4485510  66.7803940  67.4720860  25.1282380  66.0613180  68.0166550
  24.7743870  67.4559010  67.5456920  23.4899680  67.6264390  52.4154010
  23.4809780  68.3594080  51.7998520  22.5698040  67.3795970  52.5080970
  19.0906320  62.8479280  53.1600770  18.4834270  63.5878180  53.1696070
  19.5655670  62.9378640  52.3338970  28.6639110  57.0130100  62.8357660
  29.0319930  56.1925310  63.1637230  27.8037310  57.0731990  63.2513310
  32.0301140  55.9687040  53.6445220  31.4014300  56.0732710  52.9303450
  31.5353060  56.1883820  54.4339100  26.4759280  67.6892630  51.0779200
  26.5771260  67.4856620  50.1481180  25.5761020  67.4350910  51.2826980
  23.9985170  58.2472990  55.0603100  23.2901320  58.7159330  55.5016710
  24.2829650  57.5895000  55.6948290  25.6241100  59.6669690  63.0595630
  26.1226350  60.1415510  63.7247480  25.7664050  58.7433210  63.2665660
  25.1177390  70.2078950  55.7726870  25.3718890  70.1700340  54.8506240
  24.1689870  70.0812280  55.7655120  32.8307960  55.8837650  63.9024020
  32.3281560  56.6243050  64.2417830  33.6464620  56.2721650  63.5860810
  31.1229970  61.1270830  57.3485380  30.1820110  61.1421060  57.5233070
  31.4374040  60.3406790  57.7945680  21.1011610  62.8090430  50.9089340
  21.8674880  62.6971790  51.4714770  21.1786300  62.1128400  50.2566110
  19.7958370  60.2415500  51.5922230  19.8761960  59.2943010  51.7039630
  20.6878120  60.5722380  51.6982890  33.1255550  68.2979680  59.0239640
  33.2502970  69.1210850  59.4963450  33.9921110  68.0870410  58.6763790
  20.5973080  70.3910890  58.6956770  21.3335560  69.8426350  58.9665340
  20.9814000  71.2566900  58.5562760  17.4818560  66.4584460  54.5698280
  16.5558340  66.7005600  54.5603690  17.9474990  67.2858720  54.4483030
  19.6031360  69.5756960  67.8842350  20.4044090  69.8969010  68.2977750
  19.0883180  69.2152540  68.6062260  23.7075390  69.5641200  50.5182340
  24.5004000  69.8530030  50.0664130  23.1879740  69.1333370  49.8394820
  28.4395990  65.6836830  67.8317760  27.8334150  65.7068430  67.0913510
  28.1350100  64.9519870  68.3685010  29.8696360  69.4117120  66.4427170
  30.8218110  69.3275140  66.3927410  29.7224580  70.0758830  67.1160960
  32.7605560  68.7911330  51.9419080  32.4747070  68.3776470  51.1273260
  32.5625110  69.7199040  51.8219600  17.3229170  62.0630420  66.8278400
  17.8268190  61.4837700  67.3994630  16.5836590  62.3470650  67.3654770
  24.2252790  64.7844610  50.3824690  24.1203430  64.1696960  51.1086070
  24.0577010  64.2610500  49.5987700  24.3767110  63.4701410  66.3613920
  23.6112780  64.0386410  66.2768590  24.5583070  63.1777620  65.4682150
  27.4655520  63.8464640  50.9866680  26.9165620  64.2933940  51.6309420
  28.0874780  63.3413890  51.5104350  31.5190460  65.2006740  66.9188940
  32.2599930  65.5382500  66.4156400  30.7563140  65.3698800  66.3658710
  19.3552250  60.2060010  67.7228470  19.3957590  59.9073880  68.6313700
  20.2097750  60.6067620  67.5635990  23.1330640  62.8055560  52.8831980
  23.5547060  62.6395430  53.7263370  23.2581480  61.9955790  52.3887120
  21.2958060  58.7852110  65.6902960  20.7654520  58.2943060  65.0626300
  21.9646130  59.2136310  65.1560890  30.1936120  63.2521570  65.4544150
  30.6077140  63.4066650  66.3034570  29.2587120  63.3776790  65.6169930
  30.6658290  60.5917730  67.4583300  31.2479060  59.8370050  67.3703780
  30.8420060  61.1225170  66.6814780  21.7830360  55.7514480  65.7700250
  21.6887230  55.1335230  65.0451120  21.2027750  56.4780770  65.5430160
  24.5491800  54.3087720  62.8027640  24.1009100  54.3311980  61.9573190
  23.9157000  53.9106740  63.3997940  24.9551350  63.2042050  63.4240080
  25.3739460  64.0474780  63.2516320  24.0359980  63.3414090  63.1946860
  27.2915250  60.9358230  64.8077920  27.4111460  60.3399370  65.5472760
  28.1509250  60.9727920  64.3879220  29.6303150  61.4895420  63.3840430
  29.1038370  62.0138040  62.7805570  29.9734490  62.1222810  64.0150160
  22.8058770  69.5095060  64.5397810  22.2679860  70.2341120  64.2206510
  23.0592730  69.0325400  63.7495150  24.0584020  57.4779580  66.0653740
  24.6483710  57.1695430  66.7531560  23.2404260  57.0059330  66.2213640
  28.8777450  57.0945390  66.2986760  28.1892970  56.4326930  66.2336750
  29.5983470  56.6483660  66.7435220  25.6620980  70.7446270  64.7984460
  25.5879680  71.6481410  65.1056830  24.7599820  70.4258170  64.7706530
  26.2106310  69.9104780  52.4210820  27.1057100  70.2489750  52.4429580
  26.2423940  69.1884190  51.7935100  19.8502470  65.2831830  50.6497820
  20.2877340  65.8261500  51.3055400  20.3350200  64.4578780  50.6594160
  17.0648270  68.0720860  58.1018080  17.3951280  67.2041920  57.8696720
  17.4939270  68.2779380  58.9323040  21.6610190  66.4029870  55.7620050
  21.3605730  66.2794840  56.6623960  21.5547680  65.5438460  55.3535780
  17.5538480  68.9391450  60.8399710  17.1169470  69.1192250  61.6723860
  18.1216160  69.6966070  60.6981430  33.1900660  68.4408450  65.1277020
  32.5902650  68.5001010  64.3840940  33.3194560  67.5013430  65.2573870
  34.4302110  66.1826270  50.4646730  33.5995070  66.2502920  50.9353960
  34.6073940  67.0730390  50.1613590  33.8858570  62.9273750  52.9680930
  34.6477480  63.4970400  53.0740620  33.9012940  62.3600950  53.7389240
  17.3862910  61.4511680  57.1988590  16.7311750  61.1823320  56.5548290
  18.2240860  61.3416160  56.7490570  34.8918540  63.7823850  57.8122860
  35.2627370  62.9991170  57.4058830  35.5320470  64.4712950  57.6340160
  31.8752300  65.1660430  63.2253180  31.0612140  65.5957590  63.4878970
  32.2826500  65.7778840  62.6122230  33.9377740  63.2208120  50.1253450
  34.2126580  64.1287000  49.9972670  33.7488480  63.1570650  51.0615440
  33.8343080  61.1577110  55.1182880  33.4586680  60.3905040  54.6864170
  33.1046200  61.5399810  55.6057810  18.4238840  61.8364250  61.7391930
  18.7911880  61.7491650  62.6187950  17.8549660  61.0730800  61.6398790
  33.2242700  60.3048630  64.7522400  32.9928790  60.0761380  63.8520350
  33.4847250  61.2248180  64.7067290  17.9754840  58.7473340  65.6450350
  17.0810890  58.7140100  65.9844060  18.5152390  58.9460130  66.4101600
  31.6630770  55.5305060  67.5302100  32.5400950  55.5388460  67.9136100
  31.6751610  54.7935900  66.9194450  16.6000990  58.6610610  53.1413920
  15.6965070  58.9240810  52.9665580  17.0841610  58.9321780  52.3613880
  33.1094040  59.3834600  58.4190120  33.6331520  58.8897250  57.7880290
  33.6953460  59.5184960  59.1637690  33.2883760  59.4674470  61.9409670
  32.3386470  59.4338010  62.0554660  33.4696770  60.3774580  61.7059440
  19.1428200  57.7176150  51.0508300  19.8519900  57.2959370  50.5655580
  18.4268140  57.7851380  50.4191650  18.7902360  53.7715480  50.0910950
  19.5130490  54.3124420  50.4092170  19.0626880  53.4978900  49.2152490
  32.5994010  58.6407950  54.3582530  33.0953130  58.4078820  55.1431410
  32.4010080  57.8019790  53.9420170  18.4794550  53.0221670  59.9933570
  19.1270740  52.4719050  59.5528730  18.8996390  53.2764820  60.8149380
  34.0281170  57.2768900  56.8920210  33.9180450  57.1224940  57.8302480
  34.7888760  56.7489840  56.6495620  32.3746890  53.2163030  63.3503210
  33.0119110  53.8297170  63.7162400  32.5221780  53.2523690  62.4052440
  34.9909930  55.8787480  52.7583060  34.1961430  55.8132600  53.2875970
  35.1953210  56.8138120  52.7468410  31.9328350  69.9179030  56.7521450
  32.5287420  69.5963600  56.0755870  32.1906500  69.4450850  57.5434720
  18.2326550  53.1777340  62.7358890  17.8841370  53.6341160  63.5017070
  17.9014250  52.2834470  62.8181320  19.8390920  66.3496940  66.9012080
  19.7960550  65.9789850  67.7826540  19.9701930  67.2874510  67.0413900
  23.5396950  67.9056530  62.5021800  23.2988310  68.1731090  61.6152320
  24.4799590  68.0762260  62.5572660  25.7451370  54.3689220  66.2578310
  25.6840260  54.9611050  67.0073720  26.6851750  54.2615180  66.1128570
  28.3825930  54.0259280  65.8970600  28.9966340  54.3438570  65.2351680
  28.9275490  53.5407870  66.5166460  34.8001110  69.9250910  63.3032440
  34.3059390  70.3219780  62.5859570  34.1914400  69.3000120  63.6969720
  18.9047190  52.7053540  66.0109660  19.4530180  52.5241590  65.2475770
  18.9702500  51.9147650  66.5465970  19.6778950  69.2959190  64.0209860
  19.0839270  69.1643890  64.7599900  19.6702790  68.4597330  63.5551960
  29.1233970  52.5891420  62.2239890  28.2493810  52.9226530  62.0212820
  29.0144720  52.1164600  63.0491760  30.0305950  54.7962290  63.6081610
  29.7019310  53.9814050  63.2283340  30.9788250  54.7532100  63.4847300
  32.4840560  70.5674330  60.5819180  32.0243530  71.3190140  60.2077200
  31.8553020  69.8480800  60.5233980  19.3091180  66.6617570  62.9717900
  18.5825240  66.0422860  62.9043850  19.3700330  67.0558180  62.1015980
  22.9136280  68.8762570  59.7567310  23.4301300  68.2649930  59.2315570
  23.5633660  69.3791350  60.2478320  25.6531780  69.7671060  60.5836290
  25.9409590  69.5125360  59.7069300  26.1655000  69.2148420  61.1741860
  26.8708790  53.5061260  61.1632800  26.0880580  53.9806760  61.4429560
  26.5771720  52.6016090  61.0545980  31.4229860  54.2084360  59.2081890
  31.8637950  54.1529460  58.3603490  31.1537450  55.1242370  59.2792070
  33.2868430  53.8399600  57.2190710  33.2256830  52.8960820  57.0721730
  34.0660460  53.9479690  57.7644170  17.5921180  69.9791960  56.1814660
  17.4243220  69.3462640  56.8796550  16.7255690  70.1851360  55.8308850
  19.1983880  68.6725190  53.6264800  18.6731500  69.0533220  52.9226760
  19.1228460  69.2975960  54.3474510  25.7204140  70.6887160  67.9504490
  26.6471450  70.4531430  67.9940450  25.7054570  71.5159160  67.4690520
  33.9549200  70.2312730  54.9478740  34.1301390  69.5450470  54.3039660
  33.2570770  70.7559780  54.5555410  22.9067750  53.3531910  67.7146370
  22.6252020  53.8565510  66.9507190  23.2887450  52.5553660  67.3488500
  21.7976850  70.6207570  52.5014050  22.5295670  70.3366850  51.9537940
  22.0570520  70.3820850  53.3913430  20.9591640  66.7372300  52.5060380
  20.3300520  67.2057400  53.0546210  21.0739470  65.8921520  52.9406570
  29.5083210  52.7685490  68.2926840  29.3948660  53.0880100  69.1878360
  30.3252950  53.1698000  67.9964120  32.2881700  69.9157020  67.7745530
  33.0807020  69.4206250  67.5671490  32.5814850  70.5947160  68.3821140
  17.0276690  64.8270950  33.7045510  16.6504670  65.3158050  32.9730410
  17.2849760  65.4996230  34.3352040  22.8154720  68.0585180  48.2800400
  22.7870150  68.4628130  47.4128830  22.6519690  67.1295540  48.1172000
  34.7669540  68.8412280  49.5764570  35.2429260  69.3195170  50.2553650
  35.3876700  68.7729770  48.8510070  28.0319530  69.7353130  45.3059390
  28.5464200  69.6461140  46.1081820  27.1888610  70.0812830  45.5987300
  17.0252540  64.9275200  44.5280620  17.1883580  64.4580560  43.7099990
  17.4904990  64.4198760  45.1929460  16.6482560  58.3562360  31.3549290
  16.5657230  59.2993120  31.4964280  16.2965620  58.2137270  30.4761640
  17.1059810  61.0305810  32.2575220  17.9754660  61.3130610  32.5411140
  16.6150130  61.8441680  32.1424030  29.6196930  66.7312610  45.5289310
  29.9553170  67.3179300  46.2067230  28.6997270  66.6005320  45.7587100
  17.4731060  70.2433190  32.8236850  17.8328700  70.8422530  32.1694120
  17.3323400  70.7893080  33.5971880  17.1700330  54.5207790  46.3112720
  16.4558850  54.7204710  46.9165330  17.5895370  53.7447360  46.6827520
  17.4572920  68.5088050  47.2979250  17.5664040  67.5682790  47.1574640
  16.8053480  68.7742800  46.6492980  25.4485510  66.7803940  48.6977370
  25.1282380  66.0613180  49.2423060  24.7743870  67.4559010  48.7713430
  19.6031360  69.5756960  49.1098860  20.4044090  69.8969010  49.5234260
  19.0883180  69.2152540  49.8318770  23.7075390  69.5641200  31.7438850
  24.5004000  69.8530030  31.2920640  23.1879740  69.1333370  31.0651330
  28.4395990  65.6836830  49.0574270  27.8334150  65.7068430  48.3170020
  28.1350100  64.9519870  49.5941520  29.8696360  69.4117120  47.6683680
  30.8218110  69.3275140  47.6183920  29.7224580  70.0758830  48.3417470
  17.3229170  62.0630420  48.0534910  17.8268190  61.4837700  48.6251140
  16.5836590  62.3470650  48.5911280  24.2252790  64.7844610  31.6081200
  24.1203430  64.1696960  32.3342580  24.0577010  64.2610500  30.8244210
  31.5190460  65.2006740  48.1445450  32.2599930  65.5382500  47.6412910
  30.7563140  65.3698800  47.5915220  19.3552250  60.2060010  48.9484980
  19.3957590  59.9073880  49.8570210  20.2097750  60.6067620  48.7892500
  25.6620980  70.7446270  46.0240970  25.5879680  71.6481410  46.3313340
  24.7599820  70.4258170  45.9963040  19.8502470  65.2831830  31.8754330
  20.2877340  65.8261500  32.5311910  20.3350200  64.4578780  31.8850670
  17.0648270  68.0720860  39.3274590  17.3951280  67.2041920  39.0953230
  17.4939270  68.2779380  40.1579550  17.5538480  68.9391450  42.0656220
  17.1169470  69.1192250  42.8980370  18.1216160  69.6966070  41.9237940
  16.6000990  58.6610610  34.3670430  15.6965070  58.9240810  34.1922090
  17.0841610  58.9321780  33.5870390  19.8390920  66.3496940  48.1268590
  19.7960550  65.9789850  49.0083050  19.9701930  67.2874510  48.2670410
  18.9047190  52.7053540  47.2366170  19.4530180  52.5241590  46.4732280
  18.9702500  51.9147650  47.7722480  19.6778950  69.2959190  45.2466370
  19.0839270  69.1643890  45.9856410  19.6702790  68.4597330  44.7808470
  17.5921180  69.9791960  37.4071170  17.4243220  69.3462640  38.1053060
  16.7255690  70.1851360  37.0565360  19.1983880  68.6725190  34.8521310
  18.6731500  69.0533220  34.1483270  19.1228460  69.2975960  35.5731020
  25.7204140  70.6887160  49.1761000  26.6471450  70.4531430  49.2196960
  25.7054570  71.5159160  48.6947030  21.7976850  70.6207570  33.7270560
  22.5295670  70.3366850  33.1794450  22.0570520  70.3820850  34.6169940
  32.2881700  69.9157020  49.0002040  33.0807020  69.4206250  48.7928000
  32.5814850  70.5947160  49.6077650  28.4141360  60.7877960  19.8818090
  28.3335410  59.8732570  19.6109800  28.0005780  61.2845030  19.1757800
  26.5459400  62.5656980  21.7627360  25.7701500  62.0857420  22.0525930
  27.1972330  61.8862630  21.5883520  20.5625230  62.8776790  22.6403120
  19.7310110  62.6225500  23.0399630  21.1706210  62.9487560  23.3761040
  30.5666830  66.9717170  20.5426490  30.1048360  66.2004410  20.8713660
  31.3792380  66.9983240  21.0478940  20.5426490  66.9116880  22.8361140
  20.8454530  66.0214620  22.6571360  21.2870080  67.4687100  22.6083390
  18.9717180  57.8378680  16.4245510  18.0833880  58.1794650  16.3225390
  19.2558370  57.6379000  15.5326340  16.9350190  60.4384330  22.3085210
  17.5066300  59.6706530  22.3088850  16.9351730  60.7373090  21.3991820
  26.7930140  69.2575180  20.1630480  26.1741580  69.7132680  19.5924920
  27.6481920  69.4126640  19.7620180  25.9868390  65.2414170  21.7697520
  25.9176670  64.3004110  21.6086650  26.7488250  65.3315580  22.3420090
  18.1775060  55.8468690  24.0954140  17.9977900  54.9494440  24.3756900
  17.7755140  56.3940560  24.7701090  27.0173560  58.0484550  21.9966450
  27.3938380  57.1756430  21.8840120  26.9193070  58.3843250  21.1056890
  21.1478570  56.4210180  17.4583890  21.2545320  57.3213910  17.7652650
  20.2370930  56.3728150  17.1678540  18.7961730  58.3429190  22.7036480
  19.4771840  58.6067560  23.3223880  18.4809780  57.5030060  23.0374490
  22.9886300  59.3896550  21.7909070  23.4964520  59.8877520  22.4314090
  23.5199540  58.6131750  21.6148430  27.6593490  64.1414420  17.5562390
  27.0410760  64.6063870  16.9925110  28.1716740  64.8341900  17.9731900
  22.5225250  63.6690290  24.2345990  22.1894630  64.2959210  24.8767060
  22.6991930  64.1952170  23.4547660  21.7344350  65.6371090  26.0495170
  22.3518350  66.3122170  25.7679620  20.8737470  66.0459070  25.9582670
  17.0276690  64.8270950  14.9302020  16.6504670  65.3158050  14.1986920
  17.2849760  65.4996230  15.5608550  30.1880680  68.9454630  22.6794990
  30.2007840  68.5416920  21.8117250  29.6355900  69.7201920  22.5756420
  31.4826100  65.6670850  17.7685160  31.3722430  64.7245180  17.8934580
  31.4794350  66.0286490  18.6547920  27.0246380  61.2936170  17.1247650
  26.0975660  61.2273550  17.3536120  27.1771200  62.2316300  17.0102890
  27.0115460  57.5653170  14.1214810  26.0719130  57.7267130  14.2067270
  27.3298720  58.2838850  13.5750800  31.0543670  62.8556470  17.6282900
  30.4356090  62.5176020  16.9809200  31.0368120  62.2116230  18.3362090
  22.6303020  61.8200910  19.9067380  22.2260020  61.1078160  19.4113280
  22.7166140  61.4754150  20.7955420  23.0984720  65.5068470  22.0706590
  22.8013010  64.9013940  21.3914370  24.0484540  65.5445780  21.9595950
  21.3431640  58.5944120  23.6866420  21.8946230  58.7039460  22.9119670
  21.8575150  58.9681720  24.4021650  31.1870330  69.0800340  25.7329690
  30.7100890  69.8872530  25.5402300  30.5032120  68.4278670  25.8855900
  22.1903150  65.2450160  28.7214390  21.2931680  65.4690130  28.9687790
  22.2156020  65.3685100  27.7725790  29.2308370  62.0943280  14.6355650
  29.6701650  61.2565710  14.4893470  29.9436790  62.7272680  14.7219790
  21.0174370  62.1163480  27.2971760  20.8782140  62.9886280  27.6659160
  20.1355730  61.7736290  27.1519700  27.3403750  67.0339350  18.6036890
  27.7799660  67.7763680  18.1892280  27.2790640  67.2765920  19.5275850
  22.8154720  68.0585180  29.5056910  22.7870150  68.4628130  28.6385340
  22.6519690  67.1295540  29.3428510  32.8125510  53.3486090  12.9496690
  32.4998170  53.4412920  13.8495760  33.5737980  53.9267120  12.8994120
  19.3307650  60.7145890  17.4074030  19.2105250  61.4407980  16.7955300
  19.0208540  59.9448800  16.9301940  34.7669540  68.8412280  30.8021080
  35.2429260  69.3195170  31.4810160  35.3876700  68.7729770  30.0766580
  16.9693020  63.8861030  23.2142670  17.0473440  64.0209800  22.2698390
  17.5834700  63.1776920  23.4070790  18.2140650  65.5861220  19.6248850
  17.8068730  65.7275810  18.7702450  19.1053660  65.3021380  19.4220060
  28.0319530  69.7353130  26.5315900  28.5464200  69.6461140  27.3338330
  27.1888610  70.0812830  26.8243810  30.0073930  70.0208470  15.9599900
  29.8475070  69.7311410  16.8581730  29.8420640  69.2448600  15.4245130
  22.4862310  69.8007000  17.7371520  22.3104790  68.8842540  17.5239320
  21.6318050  70.1594290  17.9769320  29.7100060  67.5296030  14.5197900
  29.0165220  67.5273320  13.8600180  30.4522920  67.1055350  14.0892070
  29.2749990  69.1558740  18.5946390  29.7306940  68.3748120  18.9085010
  29.6142510  69.8665560  19.1387570  17.0252540  64.9275200  25.7537130
  17.1883580  64.4580560  24.9356500  17.4904990  64.4198760  26.4185970
  21.7971310  54.0580960  20.7897700  21.3539460  54.8390500  20.4582220
  22.3556300  54.3810850  21.4968640  24.9130130  53.6791660  15.6703530
  24.2884310  53.6751530  16.3956840  24.8260250  52.8122620  15.2739500
  21.5885530  59.1814530  18.5178950  21.3626450  58.9651700  19.4225570
  20.8078060  59.6142990  18.1724920  28.8183290  59.1877900  17.1169600
  28.2192180  59.9113700  16.9333220  29.3662900  59.1254680  16.3346050
  27.4248160  57.8241440  19.1472880  27.8177730  58.1413640  18.3341570
  27.7865010  56.9453320  19.2617400  16.4612330  54.4142240  21.3703080
  16.1725380  54.9845100  22.0828060  17.2058090  53.9346690  21.7334310
  16.6482560  58.3562360  12.5805800  16.5657230  59.2993120  12.7220790
  16.2965620  58.2137270  11.7018150  28.0103300  60.4147190  23.2423660
  27.2784420  60.9234000  23.5913760  27.6127640  59.5977170  22.9412440
  24.4480690  57.0901390  21.6476150  24.4516750  56.6491340  20.7980690
  25.3431810  57.4118720  21.7547970  20.2983070  56.9727880  20.6070360
  19.9583120  57.4503110  21.3637410  19.5360390  56.5193000  20.2471460
  24.5100840  58.0913470  14.6382910  24.6313660  58.0499950  15.5868730
  24.1249350  58.9537620  14.4829640  23.5222340  60.4014610  14.0366210
  22.9539240  59.9532860  13.4102120  24.2311340  60.7607390  13.5031360
  18.5991520  64.3026630  27.9132940  18.2146310  63.6620300  28.5115900
  18.9103710  65.0062750  28.4827670  24.7488660  61.1503170  23.3941560
  25.1158790  60.6761740  24.1402900  24.5593720  62.0244740  23.7349900
  17.6129150  55.8946860  19.5235030  17.3276070  55.5302530  20.3613650
  17.5508010  55.1627320  18.9098170  22.5388030  60.1911810  25.7125770
  22.2345100  61.0703790  25.9376130  23.4934490  60.2511600  25.7483210
  21.0669820  64.3972800  16.3092620  20.2932080  63.8570420  16.1491340
  21.7964450  63.8779410  15.9710380  27.2867740  54.7876120  16.2448400
  26.4732350  54.2889290  16.1693710  27.0929690  55.6274370  15.8284750
  27.2076600  63.4647220  27.9888010  27.1413910  62.5442890  27.7345600
  26.5781740  63.5622660  28.7032650  30.0016130  59.1595770  14.5410560
  30.8895750  59.4713000  14.3661900  29.9721220  58.2868020  14.1491140
  21.1107220  64.0653180  19.9471430  21.6285890  63.2621440  19.8928320
  20.6591240  64.0032320  20.7888260  25.9976720  65.3319460  15.2198730
  26.3392420  66.0761690  14.7242050  25.1689430  65.6450580  15.5823560
  18.5951760  61.0314550  26.8597130  18.2366700  61.6968400  27.4470470
  18.3006320  60.1998100  27.2309750  27.1393330  66.2867790  27.7391810
  27.1537870  65.3548750  27.5210720  26.4318430  66.3727550  28.3781580
  32.2730400  60.4707610  14.0090420  32.1894120  60.9021830  13.1586860
  32.9924590  60.9305960  14.4417240  33.3017650  67.3249870  16.7372550
  32.6593810  66.6705490  17.0116270  32.9148310  67.7304960  15.9613220
  28.8804130  64.6535300  20.5844240  29.2327950  64.0563430  19.9245610
  27.9966460  64.3279530  20.7552490  24.9667410  65.4132990  17.9914650
  25.6538540  65.9602200  18.3722240  24.1799830  65.9573720  18.0264260
  17.1059810  61.0305810  13.4831730  17.9754660  61.3130610  13.7667650
  16.6150130  61.8441680  13.3680540  24.2694620  62.4179020  17.6040010
  24.7257400  63.2284270  17.8300200  23.9182830  62.1002160  18.4358500
  26.5727230  67.9285360  24.8332310  27.2169450  68.1344740  25.5105730
  26.9356670  67.1673760  24.3803160  20.1706400  52.7616670  18.0762530
  20.0421030  52.7534570  19.0247450  19.3468420  53.0999760  17.7253540
  27.8459310  65.9317710  23.5509760  28.4881540  65.2310870  23.6641930
  28.3708660  66.7116150  23.3706650  31.6915030  66.2166330  13.2748900
  31.4652610  65.4996770  13.8673540  31.3011230  65.9678770  12.4370650
  29.6196930  66.7312610  26.7545820  29.9553170  67.3179300  27.4323740
  28.6997270  66.6005320  26.9843610  17.4731060  70.2433190  14.0493360
  17.8328700  70.8422530  13.3950630  17.3323400  70.7893080  14.8228390
  31.2731280  64.1338270  14.9363060  30.9852980  64.5950960  15.7240940
  32.0683450  63.6736040  15.2047280  17.4572920  68.5088050  28.5235760
  17.5664040  67.5682790  28.3831150  16.8053480  68.7742800  27.8749490
  25.4485510  66.7803940  29.9233880  25.1282380  66.0613180  30.4679570
  24.7743870  67.4559010  29.9969940  23.4899680  67.6264390  14.8667030
  23.4809780  68.3594080  14.2511540  22.5698040  67.3795970  14.9593990
  19.0906320  62.8479280  15.6113790  18.4834270  63.5878180  15.6209090
  19.5655670  62.9378640  14.7851990  26.4759280  67.6892630  13.5292220
  26.5771260  67.4856620  12.5994200  25.5761020  67.4350910  13.7340000
  23.9985170  58.2472990  17.5116120  23.2901320  58.7159330  17.9529730
  24.2829650  57.5895000  18.1461310  25.6241100  59.6669690  25.5108650
  26.1226350  60.1415510  26.1760500  25.7664050  58.7433210  25.7178680
  28.0300600  54.9723650  18.9511910  27.9068380  54.9909780  18.0021420
  28.9785160  55.0202590  19.0710310  25.1177390  70.2078950  18.2239890
  25.3718890  70.1700340  17.3019260  24.1689870  70.0812280  18.2168140
  22.2020190  56.5558070  14.8866830  23.0510720  56.9928220  14.8207020
  21.8351460  56.8678330  15.7138890  31.1229970  61.1270830  19.7998400
  30.1820110  61.1421060  19.9746090  31.4374040  60.3406790  20.2458700
  21.1011610  62.8090430  13.3602360  21.8674880  62.6971790  13.9227790
  21.1786300  62.1128400  12.7079130  19.7958370  60.2415500  14.0435250
  19.8761960  59.2943010  14.1552650  20.6878120  60.5722380  14.1495910
  33.1255550  68.2979680  21.4752660  33.2502970  69.1210850  21.9476470
  33.9921110  68.0870410  21.1276810  20.5973080  70.3910890  21.1469790
  21.3335560  69.8426350  21.4178360  20.9814000  71.2566900  21.0075780
  17.4818560  66.4584460  17.0211300  16.5558340  66.7005600  17.0116710
  17.9474990  67.2858720  16.8996050  19.6031360  69.5756960  30.3355370
  20.4044090  69.8969010  30.7490770  19.0883180  69.2152540  31.0575280
  23.7075390  69.5641200  12.9695360  24.5004000  69.8530030  12.5177150
  23.1879740  69.1333370  12.2907840  29.8696360  69.4117120  28.8940190
  30.8218110  69.3275140  28.8440430  29.7224580  70.0758830  29.5673980
  32.7605560  68.7911330  14.3932100  32.4747070  68.3776470  13.5786280
  32.5625110  69.7199040  14.2732620  17.3229170  62.0630420  29.2791420
  17.8268190  61.4837700  29.8507650  16.5836590  62.3470650  29.8167790
  24.2252790  64.7844610  12.8337710  24.1203430  64.1696960  13.5599090
  24.0577010  64.2610500  12.0500720  24.3767110  63.4701410  28.8126940
  23.6112780  64.0386410  28.7281610  24.5583070  63.1777620  27.9195170
  27.4655520  63.8464640  13.4379700  26.9165620  64.2933940  14.0822440
  28.0874780  63.3413890  13.9617370  19.3552250  60.2060010  30.1741490
  19.3957590  59.9073880  31.0826720  20.2097750  60.6067620  30.0149010
  23.1330640  62.8055560  15.3345000  23.5547060  62.6395430  16.1776390
  23.2581480  61.9955790  14.8400140  21.2958060  58.7852110  28.1415980
  20.7654520  58.2943060  27.5139320  21.9646130  59.2136310  27.6073910
  25.6458280  61.8293170  12.5822100  26.1663940  61.1142190  12.2163250
  26.2926680  62.4679040  12.8822610  24.9551350  63.2042050  25.8753100
  25.3739460  64.0474780  25.7029340  24.0359980  63.3414090  25.6459880
  27.2915250  60.9358230  27.2590940  27.4111460  60.3399370  27.9985780
  28.1509250  60.9727920  26.8392240  22.0289540  58.8788790  12.2803160
  21.8278600  58.0156150  12.6416500  21.8581590  58.7922150  11.3424760
  22.8058770  69.5095060  26.9910830  22.2679860  70.2341120  26.6719530
  23.0592730  69.0325400  26.2008170  29.5077850  53.6897020  14.8090040
  29.7880140  52.8464920  15.1649460  28.7343580  53.9220130  15.3228790
  20.8272340  55.9789410  12.2681040  21.1298240  55.9856840  11.3600190
  21.5666930  55.6287270  12.7648700  25.6620980  70.7446270  27.2497480
  25.5879680  71.6481410  27.5569850  24.7599820  70.4258170  27.2219550
  24.0457270  54.9224030  13.2537240  23.6979270  54.2448020  12.6739690
  24.2470040  54.4613540  14.0680630  26.2106310  69.9104780  14.8723840
  27.1057100  70.2489750  14.8942600  26.2423940  69.1884190  14.2448120
  19.8502470  65.2831830  13.1010840  20.2877340  65.8261500  13.7568420
  20.3350200  64.4578780  13.1107180  17.0648270  68.0720860  20.5531100
  17.3951280  67.2041920  20.3209740  17.4939270  68.2779380  21.3836060
  21.6610190  66.4029870  18.2133070  21.3605730  66.2794840  19.1136980
  21.5547680  65.5438460  17.8048800  17.5538480  68.9391450  23.2912730
  17.1169470  69.1192250  24.1236880  18.1216160  69.6966070  23.1494450
  33.1900660  68.4408450  27.5790040  32.5902650  68.5001010  26.8353960
  33.3194560  67.5013430  27.7086890  34.4302110  66.1826270  12.9159750
  33.5995070  66.2502920  13.3866980  34.6073940  67.0730390  12.6126610
  33.8858570  62.9273750  15.4193950  34.6477480  63.4970400  15.5253640
  33.9012940  62.3600950  16.1902260  17.3862910  61.4511680  19.6501610
  16.7311750  61.1823320  19.0061310  18.2240860  61.3416160  19.2003590
  33.9377740  63.2208120  12.5766470  34.2126580  64.1287000  12.4485690
  33.7488480  63.1570650  13.5128460  30.3353350  56.2452970  13.8720100
  30.7538230  56.0583950  13.0316760  30.0289410  55.3932020  14.1823030
  18.4238840  61.8364250  24.1904950  18.7911880  61.7491650  25.0700970
  17.8549660  61.0730800  24.0911810  17.9754840  58.7473340  28.0963370
  17.0810890  58.7140100  28.4357080  18.5152390  58.9460130  28.8614620
  16.6000990  58.6610610  15.5926940  15.6965070  58.9240810  15.4178600
  17.0841610  58.9321780  14.8126900  19.1428200  57.7176150  13.5021320
  19.8519900  57.2959370  13.0168600  18.4268140  57.7851380  12.8704670
  18.7902360  53.7715480  12.5423970  19.5130490  54.3124420  12.8605190
  19.0626880  53.4978900  11.6665510  34.9171440  55.1076820  12.5839370
  35.8420750  54.9758000  12.3757660  34.8947230  55.1869640  13.5375820
  31.9328350  69.9179030  19.2034470  32.5287420  69.5963600  18.5268890
  32.1906500  69.4450850  19.9947740  19.8390920  66.3496940  29.3525100
  19.7960550  65.9789850  30.2339560  19.9701930  67.2874510  29.4926920
  23.5396950  67.9056530  24.9534820  23.2988310  68.1731090  24.0665340
  24.4799590  68.0762260  25.0085680  34.8001110  69.9250910  25.7545460
  34.3059390  70.3219780  25.0372590  34.1914400  69.3000120  26.1482740
  19.6778950  69.2959190  26.4722880  19.0839270  69.1643890  27.2112920
  19.6702790  68.4597330  26.0064980  32.4840560  70.5674330  23.0332200
  32.0243530  71.3190140  22.6590220  31.8553020  69.8480800  22.9747000
  19.3091180  66.6617570  25.4230920  18.5825240  66.0422860  25.3556870
  19.3700330  67.0558180  24.5529000  22.9136280  68.8762570  22.2080330
  23.4301300  68.2649930  21.6828590  23.5633660  69.3791350  22.6991340
  25.6531780  69.7671060  23.0349310  25.9409590  69.5125360  22.1582320
  26.1655000  69.2148420  23.6254880  17.5921180  69.9791960  18.6327680
  17.4243220  69.3462640  19.3309570  16.7255690  70.1851360  18.2821870
  18.2149200  53.8108740  16.1359540  18.9728560  53.9237620  15.5623570
  17.7526370  54.6477940  16.0902970  24.7563010  55.9248010  19.1261850
  23.9437520  55.5504900  18.7857730  25.2604650  55.1693090  19.4283040
  19.1983880  68.6725190  16.0777820  18.6731500  69.0533220  15.3739780
  19.1228460  69.2975960  16.7987530  20.5874350  54.3372790  14.6761510
  21.1167110  53.5502590  14.5469460  21.2202670  55.0163980  14.9097040
  22.7812190  54.0747930  17.7306900  22.1514930  53.3735240  17.8977030
  22.2417330  54.8352060  17.5140060  25.7204140  70.6887160  30.4017510
  26.6471450  70.4531430  30.4453470  25.7054570  71.5159160  29.9203540
  33.9549200  70.2312730  17.3991760  34.1301390  69.5450470  16.7552680
  33.2570770  70.7559780  17.0068430  21.7976850  70.6207570  14.9527070
  22.5295670  70.3366850  14.4050960  22.0570520  70.3820850  15.8426450
  20.9591640  66.7372300  14.9573400  20.3300520  67.2057400  15.5059230
  21.0739470  65.8921520  15.3919590  32.2881700  69.9157020  30.2258550
  33.0807020  69.4206250  30.0184510  32.5814850  70.5947160  30.8334160
  26.5459400  62.5656980   2.9883870  25.7701500  62.0857420   3.2782440
  27.1972330  61.8862630   2.8140030  20.5625230  62.8776790   3.8659630
  19.7310110  62.6225500   4.2656140  21.1706210  62.9487560   4.6017550
  30.5666830  66.9717170   1.7683000  30.1048360  66.2004410   2.0970170
  31.3792380  66.9983240   2.2735450  20.5426490  66.9116880   4.0617650
  20.8454530  66.0214620   3.8827870  21.2870080  67.4687100   3.8339900
  16.9350190  60.4384330   3.5341720  17.5066300  59.6706530   3.5345360
  16.9351730  60.7373090   2.6248330  25.9868390  65.2414170   2.9954030
  25.9176670  64.3004110   2.8343160  26.7488250  65.3315580   3.5676600
  18.1775060  55.8468690   5.3210650  17.9977900  54.9494440   5.6013410
  17.7755140  56.3940560   5.9957600  27.0173560  58.0484550   3.2222960
  27.3938380  57.1756430   3.1096630  26.9193070  58.3843250   2.3313400
  18.7961730  58.3429190   3.9292990  19.4771840  58.6067560   4.5480390
  18.4809780  57.5030060   4.2631000  22.9886300  59.3896550   3.0165580
  23.4964520  59.8877520   3.6570600  23.5199540  58.6131750   2.8404940
  35.0897230  57.5601740   6.7194930  34.3849400  57.9483450   6.2010040
  35.3555150  58.2552030   7.3215860  21.2722400  54.0295110   7.2829000
  21.2740840  54.5467500   6.4774900  20.4426710  53.5525290   7.2598930
  22.5225250  63.6690290   5.4602500  22.1894630  64.2959210   6.1023570
  22.6991930  64.1952170   4.6804170  31.0359160  57.4835370   2.9278840
  30.3314730  57.7720260   3.5081950  31.3971320  58.2935480   2.5678400
  20.9537730  55.7405070   5.2899450  21.2954540  56.5847120   4.9953320
  20.0153540  55.8888810   5.4064790  21.7344350  65.6371090   7.2751680
  22.3518350  66.3122170   6.9936130  20.8737470  66.0459070   7.1839180
  32.6521940  67.1010500   5.1906320  31.9685460  67.7709610   5.1822990
  33.1916230  67.2991150   4.4251180  34.1046080  56.9290160   3.3188050
  33.1570990  56.9629140   3.4503480  34.4296070  57.7429110   3.7037410
  30.1880680  68.9454630   3.9051500  30.2007840  68.5416920   3.0373760
  29.6355900  69.7201920   3.8012930  29.5866120  63.8484470   5.2334110
  30.0034910  63.6344580   4.3987570  30.3105940  64.1057260   5.8042730
  33.5328220  62.2471690   5.3250350  32.7046850  62.3164780   4.8500480
  34.1278700  62.8326000   4.8566180  30.4970230  59.0341010   6.2705220
  30.0841410  59.8594720   6.5245210  29.7646180  58.4486050   6.0781580
  23.0984720  65.5068470   3.2963100  22.8013010  64.9013940   2.6170880
  24.0484540  65.5445780   3.1852460  21.3431640  58.5944120   4.9122930
  21.8946230  58.7039460   4.1376180  21.8575150  58.9681720   5.6278160
  31.1870330  69.0800340   6.9586200  30.7100890  69.8872530   6.7658810
  30.5032120  68.4278670   7.1112410  22.1903150  65.2450160   9.9470900
  21.2931680  65.4690130  10.1944300  22.2156020  65.3685100   8.9982300
  21.0174370  62.1163480   8.5228270  20.8782140  62.9886280   8.8915670
  20.1355730  61.7736290   8.3776210  22.8154720  68.0585180  10.7313420
  22.7870150  68.4628130   9.8641850  22.6519690  67.1295540  10.5685020
  34.7669540  68.8412280  12.0277590  35.2429260  69.3195170  12.7066670
  35.3876700  68.7729770  11.3023090  16.9693020  63.8861030   4.4399180
  17.0473440  64.0209800   3.4954900  17.5834700  63.1776920   4.6327300
  34.1702790  66.0325130   9.1877600  34.2965850  65.7937010   8.2694780
  34.2124170  65.2009670   9.6599680  28.0319530  69.7353130   7.7572410
  28.5464200  69.6461140   8.5594840  27.1888610  70.0812830   8.0500320
  34.0226800  58.0857590  10.1527340  33.4071070  58.5937260   9.6242800
  33.7023220  57.1855920  10.0953280  17.0252540  64.9275200   6.9793640
  17.1883580  64.4580560   6.1613010  17.4904990  64.4198760   7.6442480
  21.7971310  54.0580960   2.0154210  21.3539460  54.8390500   1.6838730
  22.3556300  54.3810850   2.7225150  26.0841120  56.9249480   7.6189530
  25.6220490  57.1332500   8.4309470  25.6819230  56.1108830   7.3160200
  31.0845630  58.1458430   8.7486190  30.2339220  57.8464180   9.0695260
  30.9247420  58.3900440   7.8370010  28.1795340  59.6460180  10.8484980
  28.5048750  58.8123930  10.5087210  28.9675670  60.1688700  10.9963310
  23.8347210  54.6028290   3.8743810  24.1319540  55.5091120   3.7935830
  24.3832770  54.1147070   3.2603380  24.0284740  60.0800110  10.4095730
  23.9328340  59.1394840  10.2596130  24.8716720  60.3015180  10.0143800
  19.1595280  56.4913780   8.5629510  18.7658670  57.3388990   8.7702290
  18.4713680  55.8540150   8.7538150  25.7340330  56.5748750  11.6326250
  25.0438650  56.3820950  12.2672340  26.4772630  56.8583390  12.1650550
  16.4612330  54.4142240   2.5959590  16.1725380  54.9845100   3.3084570
  17.2058090  53.9346690   2.9590820  28.0103300  60.4147190   4.4680170
  27.2784420  60.9234000   4.8170270  27.6127640  59.5977170   4.1668950
  24.4480690  57.0901390   2.8732660  24.4516750  56.6491340   2.0237200
  25.3431810  57.4118720   2.9804480  28.4729210  55.8680870   3.8803110
  28.4901950  56.3189520   4.7244960  28.2244790  54.9686510   4.0936550
  31.8999960  53.2813050   9.7189490  32.2245730  52.5502710  10.2447470
  31.9356470  52.9626690   8.8170480  18.5991520  64.3026630   9.1389450
  18.2146310  63.6620300   9.7372410  18.9103710  65.0062750   9.7084180
  24.7488660  61.1503170   4.6198070  25.1158790  60.6761740   5.3659410
  24.5593720  62.0244740   4.9606410  22.5388030  60.1911810   6.9382280
  22.2345100  61.0703790   7.1632640  23.4934490  60.2511600   6.9739720
  31.8257800  63.3938160   3.3275520  32.5456920  63.8893450   2.9371630
  31.6239620  62.7156050   2.6829390  27.2076600  63.4647220   9.2144520
  27.1413910  62.5442890   8.9602110  26.5781740  63.5622660   9.9289160
  18.5951760  61.0314550   8.0853640  18.2366700  61.6968400   8.6726980
  18.3006320  60.1998100   8.4566260  21.7964880  61.4898790  10.9693190
  21.4965020  61.6355970  10.0721010  22.5676120  60.9304080  10.8766580
  27.1393330  66.2867790   8.9648320  27.1537870  65.3548750   8.7467230
  26.4318430  66.3727550   9.6038090  33.3504540  62.9275130   8.3116900
  32.6252730  63.5203910   8.1146290  33.8780000  62.9198670   7.5130270
  26.5727230  67.9285360   6.0588820  27.2169450  68.1344740   6.7362240
  26.9356670  67.1673760   5.6059670  27.8459310  65.9317710   4.7766270
  28.4881540  65.2310870   4.8898440  28.3708660  66.7116150   4.5963160
  29.6196930  66.7312610   7.9802330  29.9553170  67.3179300   8.6580250
  28.6997270  66.6005320   8.2100120  17.1700330  54.5207790   8.7625740
  16.4558850  54.7204710   9.3678350  17.5895370  53.7447360   9.1340540
  17.4572920  68.5088050   9.7492270  17.5664040  67.5682790   9.6087660
  16.8053480  68.7742800   9.1006000  25.4485510  66.7803940  11.1490390
  25.1282380  66.0613180  11.6936080  24.7743870  67.4559010  11.2226450
  28.6639110  57.0130100   6.5127190  29.0319930  56.1925310   6.8406760
  27.8037310  57.0731990   6.9282840  25.6241100  59.6669690   6.7365160
  26.1226350  60.1415510   7.4017010  25.7664050  58.7433210   6.9435190
  32.8307960  55.8837650   7.5793550  32.3281560  56.6243050   7.9187360
  33.6464620  56.2721650   7.2630340  33.1255550  68.2979680   2.7009170
  33.2502970  69.1210850   3.1732980  33.9921110  68.0870410   2.3533320
  20.5973080  70.3910890   2.3726300  21.3335560  69.8426350   2.6434870
  20.9814000  71.2566900   2.2332290  19.6031360  69.5756960  11.5611880
  20.4044090  69.8969010  11.9747280  19.0883180  69.2152540  12.2831790
  28.4395990  65.6836830  11.5087290  27.8334150  65.7068430  10.7683040
  28.1350100  64.9519870  12.0454540  29.8696360  69.4117120  10.1196700
  30.8218110  69.3275140  10.0696940  29.7224580  70.0758830  10.7930490
  17.3229170  62.0630420  10.5047930  17.8268190  61.4837700  11.0764160
  16.5836590  62.3470650  11.0424300  24.3767110  63.4701410  10.0383450
  23.6112780  64.0386410   9.9538120  24.5583070  63.1777620   9.1451680
  31.5190460  65.2006740  10.5958470  32.2599930  65.5382500  10.0925930
  30.7563140  65.3698800  10.0428240  19.3552250  60.2060010  11.3998000
  19.3957590  59.9073880  12.3083230  20.2097750  60.6067620  11.2405520
  21.2958060  58.7852110   9.3672490  20.7654520  58.2943060   8.7395830
  21.9646130  59.2136310   8.8330420  30.1936120  63.2521570   9.1313680
  30.6077140  63.4066650   9.9804100  29.2587120  63.3776790   9.2939460
  30.6658290  60.5917730  11.1352830  31.2479060  59.8370050  11.0473310
  30.8420060  61.1225170  10.3584310  21.7830360  55.7514480   9.4469780
  21.6887230  55.1335230   8.7220650  21.2027750  56.4780770   9.2199690
  24.5491800  54.3087720   6.4797170  24.1009100  54.3311980   5.6342720
  23.9157000  53.9106740   7.0767470  24.9551350  63.2042050   7.1009610
  25.3739460  64.0474780   6.9285850  24.0359980  63.3414090   6.8716390
  27.2915250  60.9358230   8.4847450  27.4111460  60.3399370   9.2242290
  28.1509250  60.9727920   8.0648750  29.6303150  61.4895420   7.0609960
  29.1038370  62.0138040   6.4575100  29.9734490  62.1222810   7.6919690
  22.8058770  69.5095060   8.2167340  22.2679860  70.2341120   7.8976040
  23.0592730  69.0325400   7.4264680  24.0584020  57.4779580   9.7423270
  24.6483710  57.1695430  10.4301090  23.2404260  57.0059330   9.8983170
  28.8777450  57.0945390   9.9756290  28.1892970  56.4326930   9.9106280
  29.5983470  56.6483660  10.4204750  25.6620980  70.7446270   8.4753990
  25.5879680  71.6481410   8.7826360  24.7599820  70.4258170   8.4476060
  17.5538480  68.9391450   4.5169240  17.1169470  69.1192250   5.3493390
  18.1216160  69.6966070   4.3750960  33.1900660  68.4408450   8.8046550
  32.5902650  68.5001010   8.0610470  33.3194560  67.5013430   8.9343400
  31.8752300  65.1660430   6.9022710  31.0612140  65.5957590   7.1648500
  32.2826500  65.7778840   6.2891760  18.4238840  61.8364250   5.4161460
  18.7911880  61.7491650   6.2957480  17.8549660  61.0730800   5.3168320
  33.2242700  60.3048630   8.4291930  32.9928790  60.0761380   7.5289880
  33.4847250  61.2248180   8.3836820  17.9754840  58.7473340   9.3219880
  17.0810890  58.7140100   9.6613590  18.5152390  58.9460130  10.0871130
  31.6630770  55.5305060  11.2071630  32.5400950  55.5388460  11.5905630
  31.6751610  54.7935900  10.5963980  33.2883760  59.4674470   5.6179200
  32.3386470  59.4338010   5.7324190  33.4696770  60.3774580   5.3828970
  18.4794550  53.0221670   3.6703100  19.1270740  52.4719050   3.2298260
  18.8996390  53.2764820   4.4918910  32.3746890  53.2163030   7.0272740
  33.0119110  53.8297170   7.3931930  32.5221780  53.2523690   6.0821970
  18.2326550  53.1777340   6.4128420  17.8841370  53.6341160   7.1786600
  17.9014250  52.2834470   6.4950850  19.8390920  66.3496940  10.5781610
  19.7960550  65.9789850  11.4596070  19.9701930  67.2874510  10.7183430
  23.5396950  67.9056530   6.1791330  23.2988310  68.1731090   5.2921850
  24.4799590  68.0762260   6.2342190  25.7451370  54.3689220   9.9347840
  25.6840260  54.9611050  10.6843250  26.6851750  54.2615180   9.7898100
  28.3825930  54.0259280   9.5740130  28.9966340  54.3438570   8.9121210
  28.9275490  53.5407870  10.1935990  34.8001110  69.9250910   6.9801970
  34.3059390  70.3219780   6.2629100  34.1914400  69.3000120   7.3739250
  18.9047190  52.7053540   9.6879190  19.4530180  52.5241590   8.9245300
  18.9702500  51.9147650  10.2235500  19.6778950  69.2959190   7.6979390
  19.0839270  69.1643890   8.4369430  19.6702790  68.4597330   7.2321490
  29.1233970  52.5891420   5.9009420  28.2493810  52.9226530   5.6982350
  29.0144720  52.1164600   6.7261290  30.0305950  54.7962290   7.2851140
  29.7019310  53.9814050   6.9052870  30.9788250  54.7532100   7.1616830
  32.4840560  70.5674330   4.2588710  32.0243530  71.3190140   3.8846730
  31.8553020  69.8480800   4.2003510  19.3091180  66.6617570   6.6487430
  18.5825240  66.0422860   6.5813380  19.3700330  67.0558180   5.7785510
  22.9136280  68.8762570   3.4336840  23.4301300  68.2649930   2.9085100
  23.5633660  69.3791350   3.9247850  25.6531780  69.7671060   4.2605820
  25.9409590  69.5125360   3.3838830  26.1655000  69.2148420   4.8511390
  26.8708790  53.5061260   4.8402330  26.0880580  53.9806760   5.1199090
  26.5771720  52.6016090   4.7315510  31.4229860  54.2084360   2.8851420
  31.8637950  54.1529460   2.0373020  31.1537450  55.1242370   2.9561600
  25.7204140  70.6887160  11.6274020  26.6471450  70.4531430  11.6709980
  25.7054570  71.5159160  11.1460050  22.9067750  53.3531910  11.3915900
  22.6252020  53.8565510  10.6276720  23.2887450  52.5553660  11.0258030
  29.5083210  52.7685490  11.9696370  29.3948660  53.0880100  12.8647890
  30.3252950  53.1698000  11.6733650  32.2881700  69.9157020  11.4515060
  33.0807020  69.4206250  11.2441020  32.5814850  70.5947160  12.0590670
  28.4141360  42.0134470  76.2048560  28.3335410  41.0989080  75.9340270
  28.0005780  42.5101540  75.4988270  26.5459400  43.7913490  78.0857830
  25.7701500  43.3113930  78.3756400  27.1972330  43.1119140  77.9113990
  30.5666830  48.1973680  76.8656960  30.1048360  47.4260920  77.1944130
  31.3792380  48.2239750  77.3709410  18.9717180  39.0635190  72.7475980
  18.0833880  39.4051160  72.6455860  19.2558370  38.8635510  71.8556810
  16.9350190  41.6640840  78.6315680  17.5066300  40.8963040  78.6319320
  16.9351730  41.9629600  77.7222290  26.7930140  50.4831690  76.4860950
  26.1741580  50.9389190  75.9155390  27.6481920  50.6383150  76.0850650
  25.9868390  46.4670680  78.0927990  25.9176670  45.5260620  77.9317120
  26.7488250  46.5572090  78.6650560  27.0173560  39.2741060  78.3196920
  27.3938380  38.4012940  78.2070590  26.9193070  39.6099760  77.4287360
  21.1478570  37.6466690  73.7814360  21.2545320  38.5470420  74.0883120
  20.2370930  37.5984660  73.4909010  30.7997680  36.7691500  75.2525260
  31.6207300  36.2788070  75.2950740  30.8331760  37.3589160  76.0057100
  22.9886300  40.6153060  78.1139540  23.4964520  41.1134030  78.7544560
  23.5199540  39.8388260  77.9378900  27.6593490  45.3670930  73.8792860
  27.0410760  45.8320380  73.3155580  28.1716740  46.0598410  74.2962370
  31.0359160  38.7091880  78.0252800  30.3314730  38.9976770  78.6055910
  31.3971320  39.5191990  77.6652360  17.0276690  46.0527460  71.2532490
  16.6504670  46.5414560  70.5217390  17.2849760  46.7252740  71.8839020
  34.1046080  38.1546670  78.4162010  33.1570990  38.1885650  78.5477440
  34.4296070  38.9685620  78.8011370  24.6365620  34.4543850  76.7118000
  24.9440600  33.8990740  75.9953500  23.7066320  34.5888310  76.5290990
  31.4826100  46.8927360  74.0915630  31.3722430  45.9501690  74.2165050
  31.4794350  47.2543000  74.9778390  27.0246380  42.5192680  73.4478120
  26.0975660  42.4530060  73.6766590  27.1771200  43.4572810  73.3333360
  27.0115460  38.7909680  70.4445280  26.0719130  38.9523640  70.5297740
  27.3298720  39.5095360  69.8981270  31.0543670  44.0812980  73.9513370
  30.4356090  43.7432530  73.3039670  31.0368120  43.4372740  74.6592560
  22.6303020  43.0457420  76.2297850  22.2260020  42.3334670  75.7343750
  22.7166140  42.7010660  77.1185890  23.0984720  46.7324980  78.3937060
  22.8013010  46.1270450  77.7144840  24.0484540  46.7702290  78.2826420
  29.2308370  43.3199790  70.9586120  29.6701650  42.4822220  70.8123940
  29.9436790  43.9529190  71.0450260  27.3403750  48.2595860  74.9267360
  27.7799660  49.0020190  74.5122750  27.2790640  48.5022430  75.8506320
  32.8125510  34.5742600  69.2727160  32.4998170  34.6669430  70.1726230
  33.5737980  35.1523630  69.2224590  19.3307650  41.9402400  73.7304500
  19.2105250  42.6664490  73.1185770  19.0208540  41.1705310  73.2532410
  18.2140650  46.8117730  75.9479320  17.8068730  46.9532320  75.0932920
  19.1053660  46.5277890  75.7450530  30.0073930  51.2464980  72.2830370
  29.8475070  50.9567920  73.1812200  29.8420640  50.4705110  71.7475600
  22.4862310  51.0263510  74.0601990  22.3104790  50.1099050  73.8469790
  21.6318050  51.3850800  74.2999790  29.7100060  48.7552540  70.8428370
  29.0165220  48.7529830  70.1830650  30.4522920  48.3311860  70.4122540
  29.2749990  50.3815250  74.9176860  29.7306940  49.6004630  75.2315480
  29.6142510  51.0922070  75.4618040  21.7971310  35.2837470  77.1128170
  21.3539460  36.0647010  76.7812690  22.3556300  35.6067360  77.8199110
  24.9130130  34.9048170  71.9934000  24.2884310  34.9008040  72.7187310
  24.8260250  34.0379130  71.5969970  21.5885530  40.4071040  74.8409420
  21.3626450  40.1908210  75.7456040  20.8078060  40.8399500  74.4955390
  28.8183290  40.4134410  73.4400070  28.2192180  41.1370210  73.2563690
  29.3662900  40.3511190  72.6576520  27.4248160  39.0497950  75.4703350
  27.8177730  39.3670150  74.6572040  27.7865010  38.1709830  75.5847870
  16.4612330  35.6398750  77.6933550  16.1725380  36.2101610  78.4058530
  17.2058090  35.1603200  78.0564780  16.6482560  39.5818870  68.9036270
  16.5657230  40.5249630  69.0451260  16.2965620  39.4393780  68.0248620
  24.4480690  38.3157900  77.9706620  24.4516750  37.8747850  77.1211160
  25.3431810  38.6375230  78.0778440  20.2983070  38.1984390  76.9300830
  19.9583120  38.6759620  77.6867880  19.5360390  37.7449510  76.5701930
  24.5100840  39.3169980  70.9613380  24.6313660  39.2756460  71.9099200
  24.1249350  40.1794130  70.8060110  23.5222340  41.6271120  70.3596680
  22.9539240  41.1789370  69.7332590  24.2311340  41.9863900  69.8261830
  17.6129150  37.1203370  75.8465500  17.3276070  36.7559040  76.6844120
  17.5508010  36.3883830  75.2328640  21.0669820  45.6229310  72.6323090
  20.2932080  45.0826930  72.4721810  21.7964450  45.1035920  72.2940850
  31.8257800  44.6194670  78.4249480  32.5456920  45.1149960  78.0345590
  31.6239620  43.9412560  77.7803350  27.2867740  36.0132630  72.5678870
  26.4732350  35.5145800  72.4924180  27.0929690  36.8530880  72.1515220
  30.0016130  40.3852280  70.8641030  30.8895750  40.6969510  70.6892370
  29.9721220  39.5124530  70.4721610  21.1107220  45.2909690  76.2701900
  21.6285890  44.4877950  76.2158790  20.6591240  45.2288830  77.1118730
  25.9976720  46.5575970  71.5429200  26.3392420  47.3018200  71.0472520
  25.1689430  46.8707090  71.9054030  32.2730400  41.6964120  70.3320890
  32.1894120  42.1278340  69.4817330  32.9924590  42.1562470  70.7647710
  33.3017650  48.5506380  73.0603020  32.6593810  47.8962000  73.3346740
  32.9148310  48.9561470  72.2843690  28.8804130  45.8791810  76.9074710
  29.2327950  45.2819940  76.2476080  27.9966460  45.5536040  77.0782960
  24.9667410  46.6389500  74.3145120  25.6538540  47.1858710  74.6952710
  24.1799830  47.1830230  74.3494730  17.1059810  42.2562320  69.8062200
  17.9754660  42.5387120  70.0898120  16.6150130  43.0698190  69.6911010
  24.2694620  43.6435530  73.9270480  24.7257400  44.4540780  74.1530670
  23.9182830  43.3258670  74.7588970  20.1706400  33.9873180  74.3993000
  20.0421030  33.9791080  75.3477920  19.3468420  34.3256270  74.0484010
  31.6915030  47.4422840  69.5979370  31.4652610  46.7253280  70.1904010
  31.3011230  47.1935280  68.7601120  17.4731060  51.4689700  70.3723830
  17.8328700  52.0679040  69.7181100  17.3323400  52.0149590  71.1458860
  31.2731280  45.3594780  71.2593530  30.9852980  45.8207470  72.0471410
  32.0683450  44.8992550  71.5277750  23.4899680  48.8520900  71.1897500
  23.4809780  49.5850590  70.5742010  22.5698040  48.6052480  71.2824460
  19.0906320  44.0735790  71.9344260  18.4834270  44.8134690  71.9439560
  19.5655670  44.1635150  71.1082460  32.0301140  37.1943550  72.4188710
  31.4014300  37.2989220  71.7046940  31.5353060  37.4140330  73.2082590
  26.4759280  48.9149140  69.8522690  26.5771260  48.7113130  68.9224670
  25.5761020  48.6607420  70.0570470  23.9985170  39.4729500  73.8346590
  23.2901320  39.9415840  74.2760200  24.2829650  38.8151510  74.4691780
  28.0300600  36.1980160  75.2742380  27.9068380  36.2166290  74.3251890
  28.9785160  36.2459100  75.3940780  25.1177390  51.4335460  74.5470360
  25.3718890  51.3956850  73.6249730  24.1689870  51.3068790  74.5398610
  22.2020190  37.7814580  71.2097300  23.0510720  38.2184730  71.1437490
  21.8351460  38.0934840  72.0369360  31.1229970  42.3527340  76.1228870
  30.1820110  42.3677570  76.2976560  31.4374040  41.5663300  76.5689170
  21.1011610  44.0346940  69.6832830  21.8674880  43.9228300  70.2458260
  21.1786300  43.3384910  69.0309600  19.7958370  41.4672010  70.3665720
  19.8761960  40.5199520  70.4783120  20.6878120  41.7978890  70.4726380
  33.1255550  49.5236190  77.7983130  33.2502970  50.3467360  78.2706940
  33.9921110  49.3126920  77.4507280  20.5973080  51.6167400  77.4700260
  21.3335560  51.0682860  77.7408830  20.9814000  52.4823410  77.3306250
  17.4818560  47.6840970  73.3441770  16.5558340  47.9262110  73.3347180
  17.9474990  48.5115230  73.2226520  23.7075390  50.7897710  69.2925830
  24.5004000  51.0786540  68.8407620  23.1879740  50.3589880  68.6138310
  32.7605560  50.0167840  70.7162570  32.4747070  49.6032980  69.9016750
  32.5625110  50.9455550  70.5963090  24.2252790  46.0101120  69.1568180
  24.1203430  45.3953470  69.8829560  24.0577010  45.4867010  68.3731190
  27.4655520  45.0721150  69.7610170  26.9165620  45.5190450  70.4052910
  28.0874780  44.5670400  70.2847840  23.1330640  44.0312070  71.6575470
  23.5547060  43.8651940  72.5006860  23.2581480  43.2212300  71.1630610
  25.6458280  43.0549680  68.9052570  26.1663940  42.3398700  68.5393720
  26.2926680  43.6935550  69.2053080  22.0289540  40.1045300  68.6033630
  21.8278600  39.2412660  68.9646970  21.8581590  40.0178660  67.6655230
  29.5077850  34.9153530  71.1320510  29.7880140  34.0721430  71.4879930
  28.7343580  35.1476640  71.6459260  20.8272340  37.2045920  68.5911510
  21.1298240  37.2113350  67.6830660  21.5666930  36.8543780  69.0879170
  24.0457270  36.1480540  69.5767710  23.6979270  35.4704530  68.9970160
  24.2470040  35.6870050  70.3911100  26.2106310  51.1361290  71.1954310
  27.1057100  51.4746260  71.2173070  26.2423940  50.4140700  70.5678590
  19.8502470  46.5088340  69.4241310  20.2877340  47.0518010  70.0798890
  20.3350200  45.6835290  69.4337650  17.0648270  49.2977370  76.8761570
  17.3951280  48.4298430  76.6440210  17.4939270  49.5035890  77.7066530
  21.6610190  47.6286380  74.5363540  21.3605730  47.5051350  75.4367450
  21.5547680  46.7694970  74.1279270  34.4302110  47.4082780  69.2390220
  33.5995070  47.4759430  69.7097450  34.6073940  48.2986900  68.9357080
  33.8858570  44.1530260  71.7424420  34.6477480  44.7226910  71.8484110
  33.9012940  43.5857460  72.5132730  17.3862910  42.6768190  75.9732080
  16.7311750  42.4079830  75.3291780  18.2240860  42.5672670  75.5234060
  34.8918540  45.0080360  76.5866350  35.2627370  44.2247680  76.1802320
  35.5320470  45.6969460  76.4083650  33.9377740  44.4464630  68.8996940
  34.2126580  45.3543510  68.7716160  33.7488480  44.3827160  69.8358930
  30.3353350  37.4709480  70.1950570  30.7538230  37.2840460  69.3547230
  30.0289410  36.6188530  70.5053500  33.8343080  42.3833620  73.8926370
  33.4586680  41.6161550  73.4607660  33.1046200  42.7656320  74.3801300
  16.6000990  39.8867120  71.9157410  15.6965070  40.1497320  71.7409070
  17.0841610  40.1578290  71.1357370  33.1094040  40.6091110  77.1933610
  33.6331520  40.1153760  76.5623780  33.6953460  40.7441470  77.9381180
  19.1428200  38.9432660  69.8251790  19.8519900  38.5215880  69.3399070
  18.4268140  39.0107890  69.1935140  18.7902360  34.9971990  68.8654440
  19.5130490  35.5380930  69.1835660  19.0626880  34.7235410  67.9895980
  32.5994010  39.8664460  73.1326020  33.0953130  39.6335330  73.9174900
  32.4010080  39.0276300  72.7163660  34.0281170  38.5025410  75.6663700
  33.9180450  38.3481450  76.6045970  34.7888760  37.9746350  75.4239110
  34.9171440  36.3333330  68.9069840  35.8420750  36.2014510  68.6988130
  34.8947230  36.4126150  69.8606290  34.9909930  37.1043990  71.5326550
  34.1961430  37.0389110  72.0619460  35.1953210  38.0394630  71.5211900
  31.9328350  51.1435540  75.5264940  32.5287420  50.8220110  74.8499360
  32.1906500  50.6707360  76.3178210  31.4229860  35.4340870  77.9825380
  31.8637950  35.3785970  77.1346980  31.1537450  36.3498880  78.0535560
  33.2868430  35.0656110  75.9934200  33.2256830  34.1217330  75.8465220
  34.0660460  35.1736200  76.5387660  17.5921180  51.2048470  74.9558150
  17.4243220  50.5719150  75.6540040  16.7255690  51.4107870  74.6052340
  18.2149200  35.0365250  72.4590010  18.9728560  35.1494130  71.8854040
  17.7526370  35.8734450  72.4133440  24.7563010  37.1504520  75.4492320
  23.9437520  36.7761410  75.1088200  25.2604650  36.3949600  75.7513510
  29.2587990  33.8146970  76.6875390  29.8617360  34.3867180  77.1623910
  28.5180980  34.3786410  76.4649290  32.4022590  34.2168530  71.9615670
  32.5973220  35.1151980  72.2283100  31.6152460  33.9855610  72.4548620
  19.1983880  49.8981700  72.4008290  18.6731500  50.2789730  71.6970250
  19.1228460  50.5232470  73.1218000  20.5874350  35.5629300  70.9991980
  21.1167110  34.7759100  70.8699930  21.2202670  36.2420490  71.2327510
  22.7812190  35.3004440  74.0537370  22.1514930  34.5991750  74.2207500
  22.2417330  36.0608570  73.8370530  33.9549200  51.4569240  73.7222230
  34.1301390  50.7706980  73.0783150  33.2570770  51.9816290  73.3298900
  21.7976850  51.8464080  71.2757540  22.5295670  51.5623360  70.7281430
  22.0570520  51.6077360  72.1656920  20.9591640  47.9628810  71.2803870
  20.3300520  48.4313910  71.8289700  21.0739470  47.1178030  71.7150060
  26.5459400  43.7913490  59.3114340  25.7701500  43.3113930  59.6012910
  27.1972330  43.1119140  59.1370500  20.5625230  44.1033300  60.1890100
  19.7310110  43.8482010  60.5886610  21.1706210  44.1744070  60.9248020
  20.5426490  48.1373390  60.3848120  20.8454530  47.2471130  60.2058340
  21.2870080  48.6943610  60.1570370  18.9717180  39.0635190  53.9732490
  18.0833880  39.4051160  53.8712370  19.2558370  38.8635510  53.0813320
  16.9350190  41.6640840  59.8572190  17.5066300  40.8963040  59.8575830
  16.9351730  41.9629600  58.9478800  18.1775060  37.0725200  61.6441120
  17.9977900  36.1750950  61.9243880  17.7755140  37.6197070  62.3188070
  27.0173560  39.2741060  59.5453430  27.3938380  38.4012940  59.4327100
  26.9193070  39.6099760  58.6543870  21.1478570  37.6466690  55.0070870
  21.2545320  38.5470420  55.3139630  20.2370930  37.5984660  54.7165520
  30.7997680  36.7691500  56.4781770  31.6207300  36.2788070  56.5207250
  30.8331760  37.3589160  57.2313610  18.7961730  39.5685700  60.2523460
  19.4771840  39.8324070  60.8710860  18.4809780  38.7286570  60.5861470
  22.9886300  40.6153060  59.3396050  23.4964520  41.1134030  59.9801070
  23.5199540  39.8388260  59.1635410  35.0897230  38.7858250  63.0425400
  34.3849400  39.1739960  62.5240510  35.3555150  39.4808540  63.6446330
  21.2722400  35.2551620  63.6059470  21.2740840  35.7724010  62.8005370
  20.4426710  34.7781800  63.5829400  22.5225250  44.8946800  61.7832970
  22.1894630  45.5215720  62.4254040  22.6991930  45.4208680  61.0034640
  31.0359160  38.7091880  59.2509310  30.3314730  38.9976770  59.8312420
  31.3971320  39.5191990  58.8908870  20.9537730  36.9661580  61.6129920
  21.2954540  37.8103630  61.3183790  20.0153540  37.1145320  61.7295260
  21.7344350  46.8627600  63.5982150  22.3518350  47.5378680  63.3166600
  20.8737470  47.2715580  63.5069650  17.0276690  46.0527460  52.4789000
  16.6504670  46.5414560  51.7473900  17.2849760  46.7252740  53.1095530
  32.6521940  48.3267010  61.5136790  31.9685460  48.9966120  61.5053460
  33.1916230  48.5247660  60.7481650  34.1046080  38.1546670  59.6418520
  33.1570990  38.1885650  59.7733950  34.4296070  38.9685620  60.0267880
  24.6365620  34.4543850  57.9374510  24.9440600  33.8990740  57.2210010
  23.7066320  34.5888310  57.7547500  29.5866120  45.0740980  61.5564580
  30.0034910  44.8601090  60.7218040  30.3105940  45.3313770  62.1273200
  27.0115460  38.7909680  51.6701790  26.0719130  38.9523640  51.7554250
  27.3298720  39.5095360  51.1237780  33.5328220  43.4728200  61.6480820
  32.7046850  43.5421290  61.1730950  34.1278700  44.0582510  61.1796650
  30.4970230  40.2597520  62.5935690  30.0841410  41.0851230  62.8475680
  29.7646180  39.6742560  62.4012050  22.6303020  43.0457420  57.4554360
  22.2260020  42.3334670  56.9600260  22.7166140  42.7010660  58.3442400
  23.0984720  46.7324980  59.6193570  22.8013010  46.1270450  58.9401350
  24.0484540  46.7702290  59.5082930  21.3431640  39.8200630  61.2353400
  21.8946230  39.9295970  60.4606650  21.8575150  40.1938230  61.9508630
  31.1870330  50.3056850  63.2816670  30.7100890  51.1129040  63.0889280
  30.5032120  49.6535180  63.4342880  22.1903150  46.4706670  66.2701370
  21.2931680  46.6946640  66.5174770  22.2156020  46.5941610  65.3212770
  21.0174370  43.3419990  64.8458740  20.8782140  44.2142790  65.2146140
  20.1355730  42.9992800  64.7006680  22.8154720  49.2841690  67.0543890
  22.7870150  49.6884640  66.1872320  22.6519690  48.3552050  66.8915490
  19.3307650  41.9402400  54.9561010  19.2105250  42.6664490  54.3442280
  19.0208540  41.1705310  54.4788920  34.7669540  50.0668790  68.3508060
  35.2429260  50.5451680  69.0297140  35.3876700  49.9986280  67.6253560
  16.9693020  45.1117540  60.7629650  17.0473440  45.2466310  59.8185370
  17.5834700  44.4033430  60.9557770  18.2140650  46.8117730  57.1735830
  17.8068730  46.9532320  56.3189430  19.1053660  46.5277890  56.9707040
  34.1702790  47.2581640  65.5108070  34.2965850  47.0193520  64.5925250
  34.2124170  46.4266180  65.9830150  28.0319530  50.9609640  64.0802880
  28.5464200  50.8717650  64.8825310  27.1888610  51.3069340  64.3730790
  34.0226800  39.3114100  66.4757810  33.4071070  39.8193770  65.9473270
  33.7023220  38.4112430  66.4183750  17.0252540  46.1531710  63.3024110
  17.1883580  45.6837070  62.4843480  17.4904990  45.6455270  63.9672950
  21.7971310  35.2837470  58.3384680  21.3539460  36.0647010  58.0069200
  22.3556300  35.6067360  59.0455620  26.0841120  38.1505990  63.9420000
  25.6220490  38.3589010  64.7539940  25.6819230  37.3365340  63.6390670
  31.0845630  39.3714940  65.0716660  30.2339220  39.0720690  65.3925730
  30.9247420  39.6156950  64.1600480  28.1795340  40.8716690  67.1715450
  28.5048750  40.0380440  66.8317680  28.9675670  41.3945210  67.3193780
  24.9130130  34.9048170  53.2190510  24.2884310  34.9008040  53.9443820
  24.8260250  34.0379130  52.8226480  23.8347210  35.8284800  60.1974280
  24.1319540  36.7347630  60.1166300  24.3832770  35.3403580  59.5833850
  21.5885530  40.4071040  56.0665930  21.3626450  40.1908210  56.9712550
  20.8078060  40.8399500  55.7211900  24.0284740  41.3056620  66.7326200
  23.9328340  40.3651350  66.5826600  24.8716720  41.5271690  66.3374270
  27.4248160  39.0497950  56.6959860  27.8177730  39.3670150  55.8828550
  27.7865010  38.1709830  56.8104380  19.1595280  37.7170290  64.8859980
  18.7658670  38.5645500  65.0932760  18.4713680  37.0796660  65.0768620
  25.7340330  37.8005260  67.9556720  25.0438650  37.6077460  68.5902810
  26.4772630  38.0839900  68.4881020  16.4612330  35.6398750  58.9190060
  16.1725380  36.2101610  59.6315040  17.2058090  35.1603200  59.2821290
  16.6482560  39.5818870  50.1292780  16.5657230  40.5249630  50.2707770
  16.2965620  39.4393780  49.2505130  28.0103300  41.6403700  60.7910640
  27.2784420  42.1490510  61.1400740  27.6127640  40.8233680  60.4899420
  24.4480690  38.3157900  59.1963130  24.4516750  37.8747850  58.3467670
  25.3431810  38.6375230  59.3034950  20.2983070  38.1984390  58.1557340
  19.9583120  38.6759620  58.9124390  19.5360390  37.7449510  57.7958440
  28.4729210  37.0937380  60.2033580  28.4901950  37.5446030  61.0475430
  28.2244790  36.1943020  60.4167020  31.8999960  34.5069560  66.0419960
  32.2245730  33.7759220  66.5677940  31.9356470  34.1883200  65.1400950
  18.5991520  45.5283140  65.4619920  18.2146310  44.8876810  66.0602880
  18.9103710  46.2319260  66.0314650  24.7488660  42.3759680  60.9428540
  25.1158790  41.9018250  61.6889880  24.5593720  43.2501250  61.2836880
  17.6129150  37.1203370  57.0722010  17.3276070  36.7559040  57.9100630
  17.5508010  36.3883830  56.4585150  22.5388030  41.4168320  63.2612750
  22.2345100  42.2960300  63.4863110  23.4934490  41.4768110  63.2970190
  21.0669820  45.6229310  53.8579600  20.2932080  45.0826930  53.6978320
  21.7964450  45.1035920  53.5197360  31.8257800  44.6194670  59.6505990
  32.5456920  45.1149960  59.2602100  31.6239620  43.9412560  59.0059860
  27.2867740  36.0132630  53.7935380  26.4732350  35.5145800  53.7180690
  27.0929690  36.8530880  53.3771730  27.2076600  44.6903730  65.5374990
  27.1413910  43.7699400  65.2832580  26.5781740  44.7879170  66.2519630
  30.0016130  40.3852280  52.0897540  30.8895750  40.6969510  51.9148880
  29.9721220  39.5124530  51.6978120  21.1107220  45.2909690  57.4958410
  21.6285890  44.4877950  57.4415300  20.6591240  45.2288830  58.3375240
  18.5951760  42.2571060  64.4084110  18.2366700  42.9224910  64.9957450
  18.3006320  41.4254610  64.7796730  21.7964880  42.7155300  67.2923660
  21.4965020  42.8612480  66.3951480  22.5676120  42.1560590  67.1997050
  27.1393330  47.5124300  65.2878790  27.1537870  46.5805260  65.0697700
  26.4318430  47.5984060  65.9268560  33.3504540  44.1531640  64.6347370
  32.6252730  44.7460420  64.4376760  33.8780000  44.1455180  63.8360740
  17.1059810  42.2562320  51.0318710  17.9754660  42.5387120  51.3154630
  16.6150130  43.0698190  50.9167520  20.1706400  33.9873180  55.6249510
  20.0421030  33.9791080  56.5734430  19.3468420  34.3256270  55.2740520
  29.6196930  47.9569120  64.3032800  29.9553170  48.5435810  64.9810720
  28.6997270  47.8261830  64.5330590  17.1700330  35.7464300  65.0856210
  16.4558850  35.9461220  65.6908820  17.5895370  34.9703870  65.4571010
  17.4572920  49.7344560  66.0722740  17.5664040  48.7939300  65.9318130
  16.8053480  49.9999310  65.4236470  25.4485510  48.0060450  67.4720860
  25.1282380  47.2869690  68.0166550  24.7743870  48.6815520  67.5456920
  19.0906320  44.0735790  53.1600770  18.4834270  44.8134690  53.1696070
  19.5655670  44.1635150  52.3338970  28.6639110  38.2386610  62.8357660
  29.0319930  37.4181820  63.1637230  27.8037310  38.2988500  63.2513310
  32.0301140  37.1943550  53.6445220  31.4014300  37.2989220  52.9303450
  31.5353060  37.4140330  54.4339100  25.6241100  40.8926200  63.0595630
  26.1226350  41.3672020  63.7247480  25.7664050  39.9689720  63.2665660
  22.2020190  37.7814580  52.4353810  23.0510720  38.2184730  52.3694000
  21.8351460  38.0934840  53.2625870  32.8307960  37.1094160  63.9024020
  32.3281560  37.8499560  64.2417830  33.6464620  37.4978160  63.5860810
  31.1229970  42.3527340  57.3485380  30.1820110  42.3677570  57.5233070
  31.4374040  41.5663300  57.7945680  21.1011610  44.0346940  50.9089340
  21.8674880  43.9228300  51.4714770  21.1786300  43.3384910  50.2566110
  19.7958370  41.4672010  51.5922230  19.8761960  40.5199520  51.7039630
  20.6878120  41.7978890  51.6982890  33.1255550  49.5236190  59.0239640
  33.2502970  50.3467360  59.4963450  33.9921110  49.3126920  58.6763790
  20.5973080  51.6167400  58.6956770  21.3335560  51.0682860  58.9665340
  20.9814000  52.4823410  58.5562760  17.4818560  47.6840970  54.5698280
  16.5558340  47.9262110  54.5603690  17.9474990  48.5115230  54.4483030
  19.6031360  50.8013470  67.8842350  20.4044090  51.1225520  68.2977750
  19.0883180  50.4409050  68.6062260  28.4395990  46.9093340  67.8317760
  27.8334150  46.9324940  67.0913510  28.1350100  46.1776380  68.3685010
  29.8696360  50.6373630  66.4427170  30.8218110  50.5531650  66.3927410
  29.7224580  51.3015340  67.1160960  17.3229170  43.2886930  66.8278400
  17.8268190  42.7094210  67.3994630  16.5836590  43.5727160  67.3654770
  24.3767110  44.6957920  66.3613920  23.6112780  45.2642920  66.2768590
  24.5583070  44.4034130  65.4682150  31.5190460  46.4263250  66.9188940
  32.2599930  46.7639010  66.4156400  30.7563140  46.5955310  66.3658710
  19.3552250  41.4316520  67.7228470  19.3957590  41.1330390  68.6313700
  20.2097750  41.8324130  67.5635990  21.2958060  40.0108620  65.6902960
  20.7654520  39.5199570  65.0626300  21.9646130  40.4392820  65.1560890
  30.1936120  44.4778080  65.4544150  30.6077140  44.6323160  66.3034570
  29.2587120  44.6033300  65.6169930  30.6658290  41.8174240  67.4583300
  31.2479060  41.0626560  67.3703780  30.8420060  42.3481680  66.6814780
  21.7830360  36.9770990  65.7700250  21.6887230  36.3591740  65.0451120
  21.2027750  37.7037280  65.5430160  24.5491800  35.5344230  62.8027640
  24.1009100  35.5568490  61.9573190  23.9157000  35.1363250  63.3997940
  24.9551350  44.4298560  63.4240080  25.3739460  45.2731290  63.2516320
  24.0359980  44.5670600  63.1946860  27.2915250  42.1614740  64.8077920
  27.4111460  41.5655880  65.5472760  28.1509250  42.1984430  64.3879220
  29.6303150  42.7151930  63.3840430  29.1038370  43.2394550  62.7805570
  29.9734490  43.3479320  64.0150160  22.8058770  50.7351570  64.5397810
  22.2679860  51.4597630  64.2206510  23.0592730  50.2581910  63.7495150
  24.0584020  38.7036090  66.0653740  24.6483710  38.3951940  66.7531560
  23.2404260  38.2315840  66.2213640  28.8777450  38.3201900  66.2986760
  28.1892970  37.6583440  66.2336750  29.5983470  37.8740170  66.7435220
  29.5077850  34.9153530  52.3577020  29.7880140  34.0721430  52.7136440
  28.7343580  35.1476640  52.8715770  25.6620980  51.9702780  64.7984460
  25.5879680  52.8737920  65.1056830  24.7599820  51.6514680  64.7706530
  24.0457270  36.1480540  50.8024220  23.6979270  35.4704530  50.2226670
  24.2470040  35.6870050  51.6167610  19.8502470  46.5088340  50.6497820
  20.2877340  47.0518010  51.3055400  20.3350200  45.6835290  50.6594160
  17.0648270  49.2977370  58.1018080  17.3951280  48.4298430  57.8696720
  17.4939270  49.5035890  58.9323040  21.6610190  47.6286380  55.7620050
  21.3605730  47.5051350  56.6623960  21.5547680  46.7694970  55.3535780
  17.5538480  50.1647960  60.8399710  17.1169470  50.3448760  61.6723860
  18.1216160  50.9222580  60.6981430  33.1900660  49.6664960  65.1277020
  32.5902650  49.7257520  64.3840940  33.3194560  48.7269940  65.2573870
  17.3862910  42.6768190  57.1988590  16.7311750  42.4079830  56.5548290
  18.2240860  42.5672670  56.7490570  34.8918540  45.0080360  57.8122860
  35.2627370  44.2247680  57.4058830  35.5320470  45.6969460  57.6340160
  31.8752300  46.3916940  63.2253180  31.0612140  46.8214100  63.4878970
  32.2826500  47.0035350  62.6122230  30.3353350  37.4709480  51.4207080
  30.7538230  37.2840460  50.5803740  30.0289410  36.6188530  51.7310010
  33.8343080  42.3833620  55.1182880  33.4586680  41.6161550  54.6864170
  33.1046200  42.7656320  55.6057810  18.4238840  43.0620760  61.7391930
  18.7911880  42.9748160  62.6187950  17.8549660  42.2987310  61.6398790
  33.2242700  41.5305140  64.7522400  32.9928790  41.3017890  63.8520350
  33.4847250  42.4504690  64.7067290  17.9754840  39.9729850  65.6450350
  17.0810890  39.9396610  65.9844060  18.5152390  40.1716640  66.4101600
  31.6630770  36.7561570  67.5302100  32.5400950  36.7644970  67.9136100
  31.6751610  36.0192410  66.9194450  16.6000990  39.8867120  53.1413920
  15.6965070  40.1497320  52.9665580  17.0841610  40.1578290  52.3613880
  33.1094040  40.6091110  58.4190120  33.6331520  40.1153760  57.7880290
  33.6953460  40.7441470  59.1637690  33.2883760  40.6930980  61.9409670
  32.3386470  40.6594520  62.0554660  33.4696770  41.6031090  61.7059440
  19.1428200  38.9432660  51.0508300  19.8519900  38.5215880  50.5655580
  18.4268140  39.0107890  50.4191650  18.7902360  34.9971990  50.0910950
  19.5130490  35.5380930  50.4092170  19.0626880  34.7235410  49.2152490
  32.5994010  39.8664460  54.3582530  33.0953130  39.6335330  55.1431410
  32.4010080  39.0276300  53.9420170  18.4794550  34.2478180  59.9933570
  19.1270740  33.6975560  59.5528730  18.8996390  34.5021330  60.8149380
  32.3746890  34.4419540  63.3503210  33.0119110  35.0553680  63.7162400
  32.5221780  34.4780200  62.4052440  18.2326550  34.4033850  62.7358890
  17.8841370  34.8597670  63.5017070  17.9014250  33.5090980  62.8181320
  19.8390920  47.5753450  66.9012080  19.7960550  47.2046360  67.7826540
  19.9701930  48.5131020  67.0413900  25.7451370  35.5945730  66.2578310
  25.6840260  36.1867560  67.0073720  26.6851750  35.4871690  66.1128570
  28.3825930  35.2515790  65.8970600  28.9966340  35.5695080  65.2351680
  28.9275490  34.7664380  66.5166460  34.8001110  51.1507420  63.3032440
  34.3059390  51.5476290  62.5859570  34.1914400  50.5256630  63.6969720
  18.9047190  33.9310050  66.0109660  19.4530180  33.7498100  65.2475770
  18.9702500  33.1404160  66.5465970  19.6778950  50.5215700  64.0209860
  19.0839270  50.3900400  64.7599900  19.6702790  49.6853840  63.5551960
  29.1233970  33.8147930  62.2239890  28.2493810  34.1483040  62.0212820
  29.0144720  33.3421110  63.0491760  30.0305950  36.0218800  63.6081610
  29.7019310  35.2070560  63.2283340  30.9788250  35.9788610  63.4847300
  32.4840560  51.7930840  60.5819180  32.0243530  52.5446650  60.2077200
  31.8553020  51.0737310  60.5233980  19.3091180  47.8874080  62.9717900
  18.5825240  47.2679370  62.9043850  19.3700330  48.2814690  62.1015980
  26.8708790  34.7317770  61.1632800  26.0880580  35.2063270  61.4429560
  26.5771720  33.8272600  61.0545980  31.4229860  35.4340870  59.2081890
  31.8637950  35.3785970  58.3603490  31.1537450  36.3498880  59.2792070
  17.5921180  51.2048470  56.1814660  17.4243220  50.5719150  56.8796550
  16.7255690  51.4107870  55.8308850  18.2149200  35.0365250  53.6846520
  18.9728560  35.1494130  53.1110550  17.7526370  35.8734450  53.6389950
  24.7563010  37.1504520  56.6748830  23.9437520  36.7761410  56.3344710
  25.2604650  36.3949600  56.9770020  29.2587990  33.8146970  57.9131900
  29.8617360  34.3867180  58.3880420  28.5180980  34.3786410  57.6905800
  20.5874350  35.5629300  52.2248490  21.1167110  34.7759100  52.0956440
  21.2202670  36.2420490  52.4584020  22.7812190  35.3004440  55.2793880
  22.1514930  34.5991750  55.4464010  22.2417330  36.0608570  55.0627040
  25.7204140  51.9143670  67.9504490  26.6471450  51.6787940  67.9940450
  25.7054570  52.7415670  67.4690520  33.9549200  51.4569240  54.9478740
  34.1301390  50.7706980  54.3039660  33.2570770  51.9816290  54.5555410
  22.9067750  34.5788420  67.7146370  22.6252020  35.0822020  66.9507190
  23.2887450  33.7810170  67.3488500  29.5083210  33.9942000  68.2926840
  29.3948660  34.3136610  69.1878360  30.3252950  34.3954510  67.9964120
  32.2881700  51.1413530  67.7745530  33.0807020  50.6462760  67.5671490
  32.5814850  51.8203670  68.3821140  18.1775060  37.0725200  42.8697630
  17.9977900  36.1750950  43.1500390  17.7755140  37.6197070  43.5444580
  18.7961730  39.5685700  41.4779970  19.4771840  39.8324070  42.0967370
  18.4809780  38.7286570  41.8117980  21.2722400  35.2551620  44.8315980
  21.2740840  35.7724010  44.0261880  20.4426710  34.7781800  44.8085910
  21.7344350  46.8627600  44.8238660  22.3518350  47.5378680  44.5423110
  20.8737470  47.2715580  44.7326160  17.0252540  46.1531710  44.5280620
  17.1883580  45.6837070  43.7099990  17.4904990  45.6455270  45.1929460
  24.9130130  34.9048170  34.4447020  24.2884310  34.9008040  35.1700330
  24.8260250  34.0379130  34.0482990  25.7340330  37.8005260  49.1813230
  25.0438650  37.6077460  49.8159320  26.4772630  38.0839900  49.7137530
  16.4612330  35.6398750  40.1446570  16.1725380  36.2101610  40.8571550
  17.2058090  35.1603200  40.5077800  16.6482560  39.5818870  31.3549290
  16.5657230  40.5249630  31.4964280  16.2965620  39.4393780  30.4761640
  18.5991520  45.5283140  46.6876430  18.2146310  44.8876810  47.2859390
  18.9103710  46.2319260  47.2571160  17.1059810  42.2562320  32.2575220
  17.9754660  42.5387120  32.5411140  16.6150130  43.0698190  32.1424030
  20.1706400  33.9873180  36.8506020  20.0421030  33.9791080  37.7990940
  19.3468420  34.3256270  36.4997030  17.1700330  35.7464300  46.3112720
  16.4558850  35.9461220  46.9165330  17.5895370  34.9703870  46.6827520
  17.4572920  49.7344560  47.2979250  17.5664040  48.7939300  47.1574640
  16.8053480  49.9999310  46.6492980  17.3229170  43.2886930  48.0534910
  17.8268190  42.7094210  48.6251140  16.5836590  43.5727160  48.5911280
  17.5538480  50.1647960  42.0656220  17.1169470  50.3448760  42.8980370
  18.1216160  50.9222580  41.9237940  17.9754840  39.9729850  46.8706860
  17.0810890  39.9396610  47.2100570  18.5152390  40.1716640  47.6358110
  18.7902360  34.9971990  31.3167460  19.5130490  35.5380930  31.6348680
  19.0626880  34.7235410  30.4409000  18.4794550  34.2478180  41.2190080
  19.1270740  33.6975560  40.7785240  18.8996390  34.5021330  42.0405890
  18.2326550  34.4033850  43.9615400  17.8841370  34.8597670  44.7273580
  17.9014250  33.5090980  44.0437830  19.8390920  47.5753450  48.1268590
  19.7960550  47.2046360  49.0083050  19.9701930  48.5131020  48.2670410
  25.7451370  35.5945730  47.4834820  25.6840260  36.1867560  48.2330230
  26.6851750  35.4871690  47.3385080  18.9047190  33.9310050  47.2366170
  19.4530180  33.7498100  46.4732280  18.9702500  33.1404160  47.7722480
  19.3091180  47.8874080  44.1974410  18.5825240  47.2679370  44.1300360
  19.3700330  48.2814690  43.3272490  18.2149200  35.0365250  34.9103030
  18.9728560  35.1494130  34.3367060  17.7526370  35.8734450  34.8646460
  22.7812190  35.3004440  36.5050390  22.1514930  34.5991750  36.6720520
  22.2417330  36.0608570  36.2883550  22.9067750  34.5788420  48.9402880
  22.6252020  35.0822020  48.1763700  23.2887450  33.7810170  48.5745010
  29.5083210  33.9942000  49.5183350  29.3948660  34.3136610  50.4134870
  30.3252950  34.3954510  49.2220630  28.4141360  42.0134470  19.8818090
  28.3335410  41.0989080  19.6109800  28.0005780  42.5101540  19.1757800
  18.9717180  39.0635190  16.4245510  18.0833880  39.4051160  16.3225390
  19.2558370  38.8635510  15.5326340  16.9350190  41.6640840  22.3085210
  17.5066300  40.8963040  22.3088850  16.9351730  41.9629600  21.3991820
  18.1775060  37.0725200  24.0954140  17.9977900  36.1750950  24.3756900
  17.7755140  37.6197070  24.7701090  21.1478570  37.6466690  17.4583890
  21.2545320  38.5470420  17.7652650  20.2370930  37.5984660  17.1678540
  30.7997680  36.7691500  18.9294790  31.6207300  36.2788070  18.9720270
  30.8331760  37.3589160  19.6826630  18.7961730  39.5685700  22.7036480
  19.4771840  39.8324070  23.3223880  18.4809780  38.7286570  23.0374490
  21.2722400  35.2551620  26.0572490  21.2740840  35.7724010  25.2518390
  20.4426710  34.7781800  26.0342420  31.0359160  38.7091880  21.7022330
  30.3314730  38.9976770  22.2825440  31.3971320  39.5191990  21.3421890
  20.9537730  36.9661580  24.0642940  21.2954540  37.8103630  23.7696810
  20.0153540  37.1145320  24.1808280  17.0276690  46.0527460  14.9302020
  16.6504670  46.5414560  14.1986920  17.2849760  46.7252740  15.5608550
  24.6365620  34.4543850  20.3887530  24.9440600  33.8990740  19.6723030
  23.7066320  34.5888310  20.2060520  27.0246380  42.5192680  17.1247650
  26.0975660  42.4530060  17.3536120  27.1771200  43.4572810  17.0102890
  27.0115460  38.7909680  14.1214810  26.0719130  38.9523640  14.2067270
  27.3298720  39.5095360  13.5750800  29.2308370  43.3199790  14.6355650
  29.6701650  42.4822220  14.4893470  29.9436790  43.9529190  14.7219790
  32.8125510  34.5742600  12.9496690  32.4998170  34.6669430  13.8495760
  33.5737980  35.1523630  12.8994120  19.3307650  41.9402400  17.4074030
  19.2105250  42.6664490  16.7955300  19.0208540  41.1705310  16.9301940
  30.0073930  51.2464980  15.9599900  29.8475070  50.9567920  16.8581730
  29.8420640  50.4705110  15.4245130  22.4862310  51.0263510  17.7371520
  22.3104790  50.1099050  17.5239320  21.6318050  51.3850800  17.9769320
  29.7100060  48.7552540  14.5197900  29.0165220  48.7529830  13.8600180
  30.4522920  48.3311860  14.0892070  21.7971310  35.2837470  20.7897700
  21.3539460  36.0647010  20.4582220  22.3556300  35.6067360  21.4968640
  24.9130130  34.9048170  15.6703530  24.2884310  34.9008040  16.3956840
  24.8260250  34.0379130  15.2739500  23.8347210  35.8284800  22.6487300
  24.1319540  36.7347630  22.5679320  24.3832770  35.3403580  22.0346870
  21.5885530  40.4071040  18.5178950  21.3626450  40.1908210  19.4225570
  20.8078060  40.8399500  18.1724920  28.8183290  40.4134410  17.1169600
  28.2192180  41.1370210  16.9333220  29.3662900  40.3511190  16.3346050
  27.4248160  39.0497950  19.1472880  27.8177730  39.3670150  18.3341570
  27.7865010  38.1709830  19.2617400  16.4612330  35.6398750  21.3703080
  16.1725380  36.2101610  22.0828060  17.2058090  35.1603200  21.7334310
  16.6482560  39.5818870  12.5805800  16.5657230  40.5249630  12.7220790
  16.2965620  39.4393780  11.7018150  20.2983070  38.1984390  20.6070360
  19.9583120  38.6759620  21.3637410  19.5360390  37.7449510  20.2471460
  24.5100840  39.3169980  14.6382910  24.6313660  39.2756460  15.5868730
  24.1249350  40.1794130  14.4829640  28.4729210  37.0937380  22.6546600
  28.4901950  37.5446030  23.4988450  28.2244790  36.1943020  22.8680040
  23.5222340  41.6271120  14.0366210  22.9539240  41.1789370  13.4102120
  24.2311340  41.9863900  13.5031360  17.6129150  37.1203370  19.5235030
  17.3276070  36.7559040  20.3613650  17.5508010  36.3883830  18.9098170
  21.0669820  45.6229310  16.3092620  20.2932080  45.0826930  16.1491340
  21.7964450  45.1035920  15.9710380  27.2867740  36.0132630  16.2448400
  26.4732350  35.5145800  16.1693710  27.0929690  36.8530880  15.8284750
  30.0016130  40.3852280  14.5410560  30.8895750  40.6969510  14.3661900
  29.9721220  39.5124530  14.1491140  25.9976720  46.5575970  15.2198730
  26.3392420  47.3018200  14.7242050  25.1689430  46.8707090  15.5823560
  24.9667410  46.6389500  17.9914650  25.6538540  47.1858710  18.3722240
  24.1799830  47.1830230  18.0264260  17.1059810  42.2562320  13.4831730
  17.9754660  42.5387120  13.7667650  16.6150130  43.0698190  13.3680540
  24.2694620  43.6435530  17.6040010  24.7257400  44.4540780  17.8300200
  23.9182830  43.3258670  18.4358500  20.1706400  33.9873180  18.0762530
  20.0421030  33.9791080  19.0247450  19.3468420  34.3256270  17.7253540
  31.6915030  47.4422840  13.2748900  31.4652610  46.7253280  13.8673540
  31.3011230  47.1935280  12.4370650  17.4731060  51.4689700  14.0493360
  17.8328700  52.0679040  13.3950630  17.3323400  52.0149590  14.8228390
  17.1700330  35.7464300  27.5369230  16.4558850  35.9461220  28.1421840
  17.5895370  34.9703870  27.9084030  23.4899680  48.8520900  14.8667030
  23.4809780  49.5850590  14.2511540  22.5698040  48.6052480  14.9593990
  19.0906320  44.0735790  15.6113790  18.4834270  44.8134690  15.6209090
  19.5655670  44.1635150  14.7851990  28.6639110  38.2386610  25.2870680
  29.0319930  37.4181820  25.6150250  27.8037310  38.2988500  25.7026330
  32.0301140  37.1943550  16.0958240  31.4014300  37.2989220  15.3816470
  31.5353060  37.4140330  16.8852120  26.4759280  48.9149140  13.5292220
  26.5771260  48.7113130  12.5994200  25.5761020  48.6607420  13.7340000
  23.9985170  39.4729500  17.5116120  23.2901320  39.9415840  17.9529730
  24.2829650  38.8151510  18.1461310  28.0300600  36.1980160  18.9511910
  27.9068380  36.2166290  18.0021420  28.9785160  36.2459100  19.0710310
  25.1177390  51.4335460  18.2239890  25.3718890  51.3956850  17.3019260
  24.1689870  51.3068790  18.2168140  22.2020190  37.7814580  14.8866830
  23.0510720  38.2184730  14.8207020  21.8351460  38.0934840  15.7138890
  31.1229970  42.3527340  19.7998400  30.1820110  42.3677570  19.9746090
  31.4374040  41.5663300  20.2458700  21.1011610  44.0346940  13.3602360
  21.8674880  43.9228300  13.9227790  21.1786300  43.3384910  12.7079130
  19.7958370  41.4672010  14.0435250  19.8761960  40.5199520  14.1552650
  20.6878120  41.7978890  14.1495910  17.4818560  47.6840970  17.0211300
  16.5558340  47.9262110  17.0116710  17.9474990  48.5115230  16.8996050
  23.7075390  50.7897710  12.9695360  24.5004000  51.0786540  12.5177150
  23.1879740  50.3589880  12.2907840  32.7605560  50.0167840  14.3932100
  32.4747070  49.6032980  13.5786280  32.5625110  50.9455550  14.2732620
  24.2252790  46.0101120  12.8337710  24.1203430  45.3953470  13.5599090
  24.0577010  45.4867010  12.0500720  27.4655520  45.0721150  13.4379700
  26.9165620  45.5190450  14.0822440  28.0874780  44.5670400  13.9617370
  23.1330640  44.0312070  15.3345000  23.5547060  43.8651940  16.1776390
  23.2581480  43.2212300  14.8400140  25.6458280  43.0549680  12.5822100
  26.1663940  42.3398700  12.2163250  26.2926680  43.6935550  12.8822610
  24.5491800  35.5344230  25.2540660  24.1009100  35.5568490  24.4086210
  23.9157000  35.1363250  25.8510960  22.0289540  40.1045300  12.2803160
  21.8278600  39.2412660  12.6416500  21.8581590  40.0178660  11.3424760
  29.5077850  34.9153530  14.8090040  29.7880140  34.0721430  15.1649460
  28.7343580  35.1476640  15.3228790  20.8272340  37.2045920  12.2681040
  21.1298240  37.2113350  11.3600190  21.5666930  36.8543780  12.7648700
  24.0457270  36.1480540  13.2537240  23.6979270  35.4704530  12.6739690
  24.2470040  35.6870050  14.0680630  26.2106310  51.1361290  14.8723840
  27.1057100  51.4746260  14.8942600  26.2423940  50.4140700  14.2448120
  19.8502470  46.5088340  13.1010840  20.2877340  47.0518010  13.7568420
  20.3350200  45.6835290  13.1107180  34.4302110  47.4082780  12.9159750
  33.5995070  47.4759430  13.3866980  34.6073940  48.2986900  12.6126610
  17.3862910  42.6768190  19.6501610  16.7311750  42.4079830  19.0061310
  18.2240860  42.5672670  19.2003590  30.3353350  37.4709480  13.8720100
  30.7538230  37.2840460  13.0316760  30.0289410  36.6188530  14.1823030
  16.6000990  39.8867120  15.5926940  15.6965070  40.1497320  15.4178600
  17.0841610  40.1578290  14.8126900  19.1428200  38.9432660  13.5021320
  19.8519900  38.5215880  13.0168600  18.4268140  39.0107890  12.8704670
  18.7902360  34.9971990  12.5423970  19.5130490  35.5380930  12.8605190
  19.0626880  34.7235410  11.6665510  18.4794550  34.2478180  22.4446590
  19.1270740  33.6975560  22.0041750  18.8996390  34.5021330  23.2662400
  34.9171440  36.3333330  12.5839370  35.8420750  36.2014510  12.3757660
  34.8947230  36.4126150  13.5375820  34.9909930  37.1043990  15.2096080
  34.1961430  37.0389110  15.7388990  35.1953210  38.0394630  15.1981430
  18.2326550  34.4033850  25.1871910  17.8841370  34.8597670  25.9530090
  17.9014250  33.5090980  25.2694340  18.9047190  33.9310050  28.4622680
  19.4530180  33.7498100  27.6988790  18.9702500  33.1404160  28.9978990
  29.1233970  33.8147930  24.6752910  28.2493810  34.1483040  24.4725840
  29.0144720  33.3421110  25.5004780  30.0305950  36.0218800  26.0594630
  29.7019310  35.2070560  25.6796360  30.9788250  35.9788610  25.9360320
  26.8708790  34.7317770  23.6145820  26.0880580  35.2063270  23.8942580
  26.5771720  33.8272600  23.5059000  31.4229860  35.4340870  21.6594910
  31.8637950  35.3785970  20.8116510  31.1537450  36.3498880  21.7305090
  33.2868430  35.0656110  19.6703730  33.2256830  34.1217330  19.5234750
  34.0660460  35.1736200  20.2157190  17.5921180  51.2048470  18.6327680
  17.4243220  50.5719150  19.3309570  16.7255690  51.4107870  18.2821870
  18.2149200  35.0365250  16.1359540  18.9728560  35.1494130  15.5623570
  17.7526370  35.8734450  16.0902970  24.7563010  37.1504520  19.1261850
  23.9437520  36.7761410  18.7857730  25.2604650  36.3949600  19.4283040
  29.2587990  33.8146970  20.3644920  29.8617360  34.3867180  20.8393440
  28.5180980  34.3786410  20.1418820  32.4022590  34.2168530  15.6385200
  32.5973220  35.1151980  15.9052630  31.6152460  33.9855610  16.1318150
  19.1983880  49.8981700  16.0777820  18.6731500  50.2789730  15.3739780
  19.1228460  50.5232470  16.7987530  20.5874350  35.5629300  14.6761510
  21.1167110  34.7759100  14.5469460  21.2202670  36.2420490  14.9097040
  22.7812190  35.3004440  17.7306900  22.1514930  34.5991750  17.8977030
  22.2417330  36.0608570  17.5140060  21.7976850  51.8464080  14.9527070
  22.5295670  51.5623360  14.4050960  22.0570520  51.6077360  15.8426450
  20.9591640  47.9628810  14.9573400  20.3300520  48.4313910  15.5059230
  21.0739470  47.1178030  15.3919590  26.5459400  43.7913490   2.9883870
  25.7701500  43.3113930   3.2782440  27.1972330  43.1119140   2.8140030
  20.5625230  44.1033300   3.8659630  19.7310110  43.8482010   4.2656140
  21.1706210  44.1744070   4.6017550  30.5666830  48.1973680   1.7683000
  30.1048360  47.4260920   2.0970170  31.3792380  48.2239750   2.2735450
  20.5426490  48.1373390   4.0617650  20.8454530  47.2471130   3.8827870
  21.2870080  48.6943610   3.8339900  16.9350190  41.6640840   3.5341720
  17.5066300  40.8963040   3.5345360  16.9351730  41.9629600   2.6248330
  25.9868390  46.4670680   2.9954030  25.9176670  45.5260620   2.8343160
  26.7488250  46.5572090   3.5676600  18.1775060  37.0725200   5.3210650
  17.9977900  36.1750950   5.6013410  17.7755140  37.6197070   5.9957600
  27.0173560  39.2741060   3.2222960  27.3938380  38.4012940   3.1096630
  26.9193070  39.6099760   2.3313400  18.7961730  39.5685700   3.9292990
  19.4771840  39.8324070   4.5480390  18.4809780  38.7286570   4.2631000
  22.9886300  40.6153060   3.0165580  23.4964520  41.1134030   3.6570600
  23.5199540  39.8388260   2.8404940  35.0897230  38.7858250   6.7194930
  34.3849400  39.1739960   6.2010040  35.3555150  39.4808540   7.3215860
  21.2722400  35.2551620   7.2829000  21.2740840  35.7724010   6.4774900
  20.4426710  34.7781800   7.2598930  22.5225250  44.8946800   5.4602500
  22.1894630  45.5215720   6.1023570  22.6991930  45.4208680   4.6804170
  31.0359160  38.7091880   2.9278840  30.3314730  38.9976770   3.5081950
  31.3971320  39.5191990   2.5678400  20.9537730  36.9661580   5.2899450
  21.2954540  37.8103630   4.9953320  20.0153540  37.1145320   5.4064790
  21.7344350  46.8627600   7.2751680  22.3518350  47.5378680   6.9936130
  20.8737470  47.2715580   7.1839180  32.6521940  48.3267010   5.1906320
  31.9685460  48.9966120   5.1822990  33.1916230  48.5247660   4.4251180
  34.1046080  38.1546670   3.3188050  33.1570990  38.1885650   3.4503480
  34.4296070  38.9685620   3.7037410  30.1880680  50.1711140   3.9051500
  30.2007840  49.7673430   3.0373760  29.6355900  50.9458430   3.8012930
  29.5866120  45.0740980   5.2334110  30.0034910  44.8601090   4.3987570
  30.3105940  45.3313770   5.8042730  33.5328220  43.4728200   5.3250350
  32.7046850  43.5421290   4.8500480  34.1278700  44.0582510   4.8566180
  30.4970230  40.2597520   6.2705220  30.0841410  41.0851230   6.5245210
  29.7646180  39.6742560   6.0781580  23.0984720  46.7324980   3.2963100
  22.8013010  46.1270450   2.6170880  24.0484540  46.7702290   3.1852460
  21.3431640  39.8200630   4.9122930  21.8946230  39.9295970   4.1376180
  21.8575150  40.1938230   5.6278160  31.1870330  50.3056850   6.9586200
  30.7100890  51.1129040   6.7658810  30.5032120  49.6535180   7.1112410
  22.1903150  46.4706670   9.9470900  21.2931680  46.6946640  10.1944300
  22.2156020  46.5941610   8.9982300  21.0174370  43.3419990   8.5228270
  20.8782140  44.2142790   8.8915670  20.1355730  42.9992800   8.3776210
  22.8154720  49.2841690  10.7313420  22.7870150  49.6884640   9.8641850
  22.6519690  48.3552050  10.5685020  34.7669540  50.0668790  12.0277590
  35.2429260  50.5451680  12.7066670  35.3876700  49.9986280  11.3023090
  16.9693020  45.1117540   4.4399180  17.0473440  45.2466310   3.4954900
  17.5834700  44.4033430   4.6327300  34.1702790  47.2581640   9.1877600
  34.2965850  47.0193520   8.2694780  34.2124170  46.4266180   9.6599680
  28.0319530  50.9609640   7.7572410  28.5464200  50.8717650   8.5594840
  27.1888610  51.3069340   8.0500320  34.0226800  39.3114100  10.1527340
  33.4071070  39.8193770   9.6242800  33.7023220  38.4112430  10.0953280
  17.0252540  46.1531710   6.9793640  17.1883580  45.6837070   6.1613010
  17.4904990  45.6455270   7.6442480  21.7971310  35.2837470   2.0154210
  21.3539460  36.0647010   1.6838730  22.3556300  35.6067360   2.7225150
  26.0841120  38.1505990   7.6189530  25.6220490  38.3589010   8.4309470
  25.6819230  37.3365340   7.3160200  31.0845630  39.3714940   8.7486190
  30.2339220  39.0720690   9.0695260  30.9247420  39.6156950   7.8370010
  28.1795340  40.8716690  10.8484980  28.5048750  40.0380440  10.5087210
  28.9675670  41.3945210  10.9963310  23.8347210  35.8284800   3.8743810
  24.1319540  36.7347630   3.7935830  24.3832770  35.3403580   3.2603380
  24.0284740  41.3056620  10.4095730  23.9328340  40.3651350  10.2596130
  24.8716720  41.5271690  10.0143800  19.1595280  37.7170290   8.5629510
  18.7658670  38.5645500   8.7702290  18.4713680  37.0796660   8.7538150
  25.7340330  37.8005260  11.6326250  25.0438650  37.6077460  12.2672340
  26.4772630  38.0839900  12.1650550  16.4612330  35.6398750   2.5959590
  16.1725380  36.2101610   3.3084570  17.2058090  35.1603200   2.9590820
  28.0103300  41.6403700   4.4680170  27.2784420  42.1490510   4.8170270
  27.6127640  40.8233680   4.1668950  24.4480690  38.3157900   2.8732660
  24.4516750  37.8747850   2.0237200  25.3431810  38.6375230   2.9804480
  28.4729210  37.0937380   3.8803110  28.4901950  37.5446030   4.7244960
  28.2244790  36.1943020   4.0936550  31.8999960  34.5069560   9.7189490
  32.2245730  33.7759220  10.2447470  31.9356470  34.1883200   8.8170480
  18.5991520  45.5283140   9.1389450  18.2146310  44.8876810   9.7372410
  18.9103710  46.2319260   9.7084180  24.7488660  42.3759680   4.6198070
  25.1158790  41.9018250   5.3659410  24.5593720  43.2501250   4.9606410
  22.5388030  41.4168320   6.9382280  22.2345100  42.2960300   7.1632640
  23.4934490  41.4768110   6.9739720  31.8257800  44.6194670   3.3275520
  32.5456920  45.1149960   2.9371630  31.6239620  43.9412560   2.6829390
  27.2076600  44.6903730   9.2144520  27.1413910  43.7699400   8.9602110
  26.5781740  44.7879170   9.9289160  18.5951760  42.2571060   8.0853640
  18.2366700  42.9224910   8.6726980  18.3006320  41.4254610   8.4566260
  21.7964880  42.7155300  10.9693190  21.4965020  42.8612480  10.0721010
  22.5676120  42.1560590  10.8766580  27.1393330  47.5124300   8.9648320
  27.1537870  46.5805260   8.7467230  26.4318430  47.5984060   9.6038090
  33.3504540  44.1531640   8.3116900  32.6252730  44.7460420   8.1146290
  33.8780000  44.1455180   7.5130270  26.5727230  49.1541870   6.0588820
  27.2169450  49.3601250   6.7362240  26.9356670  48.3930270   5.6059670
  27.8459310  47.1574220   4.7766270  28.4881540  46.4567380   4.8898440
  28.3708660  47.9372660   4.5963160  29.6196930  47.9569120   7.9802330
  29.9553170  48.5435810   8.6580250  28.6997270  47.8261830   8.2100120
  17.1700330  35.7464300   8.7625740  16.4558850  35.9461220   9.3678350
  17.5895370  34.9703870   9.1340540  17.4572920  49.7344560   9.7492270
  17.5664040  48.7939300   9.6087660  16.8053480  49.9999310   9.1006000
  25.4485510  48.0060450  11.1490390  25.1282380  47.2869690  11.6936080
  24.7743870  48.6815520  11.2226450  28.6639110  38.2386610   6.5127190
  29.0319930  37.4181820   6.8406760  27.8037310  38.2988500   6.9282840
  25.6241100  40.8926200   6.7365160  26.1226350  41.3672020   7.4017010
  25.7664050  39.9689720   6.9435190  32.8307960  37.1094160   7.5793550
  32.3281560  37.8499560   7.9187360  33.6464620  37.4978160   7.2630340
  33.1255550  49.5236190   2.7009170  33.2502970  50.3467360   3.1732980
  33.9921110  49.3126920   2.3533320  20.5973080  51.6167400   2.3726300
  21.3335560  51.0682860   2.6434870  20.9814000  52.4823410   2.2332290
  19.6031360  50.8013470  11.5611880  20.4044090  51.1225520  11.9747280
  19.0883180  50.4409050  12.2831790  28.4395990  46.9093340  11.5087290
  27.8334150  46.9324940  10.7683040  28.1350100  46.1776380  12.0454540
  29.8696360  50.6373630  10.1196700  30.8218110  50.5531650  10.0696940
  29.7224580  51.3015340  10.7930490  17.3229170  43.2886930  10.5047930
  17.8268190  42.7094210  11.0764160  16.5836590  43.5727160  11.0424300
  24.3767110  44.6957920  10.0383450  23.6112780  45.2642920   9.9538120
  24.5583070  44.4034130   9.1451680  31.5190460  46.4263250  10.5958470
  32.2599930  46.7639010  10.0925930  30.7563140  46.5955310  10.0428240
  19.3552250  41.4316520  11.3998000  19.3957590  41.1330390  12.3083230
  20.2097750  41.8324130  11.2405520  21.2958060  40.0108620   9.3672490
  20.7654520  39.5199570   8.7395830  21.9646130  40.4392820   8.8330420
  30.1936120  44.4778080   9.1313680  30.6077140  44.6323160   9.9804100
  29.2587120  44.6033300   9.2939460  30.6658290  41.8174240  11.1352830
  31.2479060  41.0626560  11.0473310  30.8420060  42.3481680  10.3584310
  21.7830360  36.9770990   9.4469780  21.6887230  36.3591740   8.7220650
  21.2027750  37.7037280   9.2199690  24.5491800  35.5344230   6.4797170
  24.1009100  35.5568490   5.6342720  23.9157000  35.1363250   7.0767470
  24.9551350  44.4298560   7.1009610  25.3739460  45.2731290   6.9285850
  24.0359980  44.5670600   6.8716390  27.2915250  42.1614740   8.4847450
  27.4111460  41.5655880   9.2242290  28.1509250  42.1984430   8.0648750
  29.6303150  42.7151930   7.0609960  29.1038370  43.2394550   6.4575100
  29.9734490  43.3479320   7.6919690  22.8058770  50.7351570   8.2167340
  22.2679860  51.4597630   7.8976040  23.0592730  50.2581910   7.4264680
  24.0584020  38.7036090   9.7423270  24.6483710  38.3951940  10.4301090
  23.2404260  38.2315840   9.8983170  28.8777450  38.3201900   9.9756290
  28.1892970  37.6583440   9.9106280  29.5983470  37.8740170  10.4204750
  25.6620980  51.9702780   8.4753990  25.5879680  52.8737920   8.7826360
  24.7599820  51.6514680   8.4476060  17.5538480  50.1647960   4.5169240
  17.1169470  50.3448760   5.3493390  18.1216160  50.9222580   4.3750960
  33.1900660  49.6664960   8.8046550  32.5902650  49.7257520   8.0610470
  33.3194560  48.7269940   8.9343400  31.8752300  46.3916940   6.9022710
  31.0612140  46.8214100   7.1648500  32.2826500  47.0035350   6.2891760
  18.4238840  43.0620760   5.4161460  18.7911880  42.9748160   6.2957480
  17.8549660  42.2987310   5.3168320  33.2242700  41.5305140   8.4291930
  32.9928790  41.3017890   7.5289880  33.4847250  42.4504690   8.3836820
  17.9754840  39.9729850   9.3219880  17.0810890  39.9396610   9.6613590
  18.5152390  40.1716640  10.0871130  31.6630770  36.7561570  11.2071630
  32.5400950  36.7644970  11.5905630  31.6751610  36.0192410  10.5963980
  33.2883760  40.6930980   5.6179200  32.3386470  40.6594520   5.7324190
  33.4696770  41.6031090   5.3828970  18.4794550  34.2478180   3.6703100
  19.1270740  33.6975560   3.2298260  18.8996390  34.5021330   4.4918910
  32.3746890  34.4419540   7.0272740  33.0119110  35.0553680   7.3931930
  32.5221780  34.4780200   6.0821970  18.2326550  34.4033850   6.4128420
  17.8841370  34.8597670   7.1786600  17.9014250  33.5090980   6.4950850
  19.8390920  47.5753450  10.5781610  19.7960550  47.2046360  11.4596070
  19.9701930  48.5131020  10.7183430  23.5396950  49.1313040   6.1791330
  23.2988310  49.3987600   5.2921850  24.4799590  49.3018770   6.2342190
  25.7451370  35.5945730   9.9347840  25.6840260  36.1867560  10.6843250
  26.6851750  35.4871690   9.7898100  28.3825930  35.2515790   9.5740130
  28.9966340  35.5695080   8.9121210  28.9275490  34.7664380  10.1935990
  34.8001110  51.1507420   6.9801970  34.3059390  51.5476290   6.2629100
  34.1914400  50.5256630   7.3739250  18.9047190  33.9310050   9.6879190
  19.4530180  33.7498100   8.9245300  18.9702500  33.1404160  10.2235500
  19.6778950  50.5215700   7.6979390  19.0839270  50.3900400   8.4369430
  19.6702790  49.6853840   7.2321490  29.1233970  33.8147930   5.9009420
  28.2493810  34.1483040   5.6982350  29.0144720  33.3421110   6.7261290
  30.0305950  36.0218800   7.2851140  29.7019310  35.2070560   6.9052870
  30.9788250  35.9788610   7.1616830  32.4840560  51.7930840   4.2588710
  32.0243530  52.5446650   3.8846730  31.8553020  51.0737310   4.2003510
  19.3091180  47.8874080   6.6487430  18.5825240  47.2679370   6.5813380
  19.3700330  48.2814690   5.7785510  22.9136280  50.1019080   3.4336840
  23.4301300  49.4906440   2.9085100  23.5633660  50.6047860   3.9247850
  25.6531780  50.9927570   4.2605820  25.9409590  50.7381870   3.3838830
  26.1655000  50.4404930   4.8511390  26.8708790  34.7317770   4.8402330
  26.0880580  35.2063270   5.1199090  26.5771720  33.8272600   4.7315510
  31.4229860  35.4340870   2.8851420  31.8637950  35.3785970   2.0373020
  31.1537450  36.3498880   2.9561600  25.7204140  51.9143670  11.6274020
  26.6471450  51.6787940  11.6709980  25.7054570  52.7415670  11.1460050
  22.9067750  34.5788420  11.3915900  22.6252020  35.0822020  10.6276720
  23.2887450  33.7810170  11.0258030  29.5083210  33.9942000  11.9696370
  29.3948660  34.3136610  12.8647890  30.3252950  34.3954510  11.6733650
  32.2881700  51.1413530  11.4515060  33.0807020  50.6462760  11.2441020
  32.5814850  51.8203670  12.0590670  28.4141360  23.2390980  76.2048560
  28.3335410  22.3245590  75.9340270  28.0005780  23.7358050  75.4988270
  26.5459400  25.0170000  78.0857830  25.7701500  24.5370440  78.3756400
  27.1972330  24.3375650  77.9113990  30.5666830  29.4230190  76.8656960
  30.1048360  28.6517430  77.1944130  31.3792380  29.4496260  77.3709410
  18.9717180  20.2891700  72.7475980  18.0833880  20.6307670  72.6455860
  19.2558370  20.0892020  71.8556810  16.9350190  22.8897350  78.6315680
  17.5066300  22.1219550  78.6319320  16.9351730  23.1886110  77.7222290
  26.7930140  31.7088200  76.4860950  26.1741580  32.1645700  75.9155390
  27.6481920  31.8639660  76.0850650  25.9868390  27.6927190  78.0927990
  25.9176670  26.7517130  77.9317120  26.7488250  27.7828600  78.6650560
  27.0173560  20.4997570  78.3196920  27.3938380  19.6269450  78.2070590
  26.9193070  20.8356270  77.4287360  21.1478570  18.8723200  73.7814360
  21.2545320  19.7726930  74.0883120  20.2370930  18.8241170  73.4909010
  30.7997680  17.9948010  75.2525260  31.6207300  17.5044580  75.2950740
  30.8331760  18.5845670  76.0057100  22.9886300  21.8409570  78.1139540
  23.4964520  22.3390540  78.7544560  23.5199540  21.0644770  77.9378900
  27.6593490  26.5927440  73.8792860  27.0410760  27.0576890  73.3155580
  28.1716740  27.2854920  74.2962370  31.0359160  19.9348390  78.0252800
  30.3314730  20.2233280  78.6055910  31.3971320  20.7448500  77.6652360
  17.0276690  27.2783970  71.2532490  16.6504670  27.7671070  70.5217390
  17.2849760  27.9509250  71.8839020  34.1046080  19.3803180  78.4162010
  33.1570990  19.4142160  78.5477440  34.4296070  20.1942130  78.8011370
  24.6365620  15.6800360  76.7118000  24.9440600  15.1247250  75.9953500
  23.7066320  15.8144820  76.5290990  31.4826100  28.1183870  74.0915630
  31.3722430  27.1758200  74.2165050  31.4794350  28.4799510  74.9778390
  27.0246380  23.7449190  73.4478120  26.0975660  23.6786570  73.6766590
  27.1771200  24.6829320  73.3333360  27.0115460  20.0166190  70.4445280
  26.0719130  20.1780150  70.5297740  27.3298720  20.7351870  69.8981270
  31.0543670  25.3069490  73.9513370  30.4356090  24.9689040  73.3039670
  31.0368120  24.6629250  74.6592560  22.6303020  24.2713930  76.2297850
  22.2260020  23.5591180  75.7343750  22.7166140  23.9267170  77.1185890
  23.0984720  27.9581490  78.3937060  22.8013010  27.3526960  77.7144840
  24.0484540  27.9958800  78.2826420  29.2308370  24.5456300  70.9586120
  29.6701650  23.7078730  70.8123940  29.9436790  25.1785700  71.0450260
  27.3403750  29.4852370  74.9267360  27.7799660  30.2276700  74.5122750
  27.2790640  29.7278940  75.8506320  32.8125510  15.7999110  69.2727160
  32.4998170  15.8925940  70.1726230  33.5737980  16.3780140  69.2224590
  19.3307650  23.1658910  73.7304500  19.2105250  23.8921000  73.1185770
  19.0208540  22.3961820  73.2532410  18.2140650  28.0374240  75.9479320
  17.8068730  28.1788830  75.0932920  19.1053660  27.7534400  75.7450530
  30.0073930  32.4721490  72.2830370  29.8475070  32.1824430  73.1812200
  29.8420640  31.6961620  71.7475600  22.4862310  32.2520020  74.0601990
  22.3104790  31.3355560  73.8469790  21.6318050  32.6107310  74.2999790
  29.7100060  29.9809050  70.8428370  29.0165220  29.9786340  70.1830650
  30.4522920  29.5568370  70.4122540  29.2749990  31.6071760  74.9176860
  29.7306940  30.8261140  75.2315480  29.6142510  32.3178580  75.4618040
  21.7971310  16.5093980  77.1128170  21.3539460  17.2903520  76.7812690
  22.3556300  16.8323870  77.8199110  24.9130130  16.1304680  71.9934000
  24.2884310  16.1264550  72.7187310  24.8260250  15.2635640  71.5969970
  21.5885530  21.6327550  74.8409420  21.3626450  21.4164720  75.7456040
  20.8078060  22.0656010  74.4955390  28.8183290  21.6390920  73.4400070
  28.2192180  22.3626720  73.2563690  29.3662900  21.5767700  72.6576520
  27.4248160  20.2754460  75.4703350  27.8177730  20.5926660  74.6572040
  27.7865010  19.3966340  75.5847870  16.4612330  16.8655260  77.6933550
  16.1725380  17.4358120  78.4058530  17.2058090  16.3859710  78.0564780
  16.6482560  20.8075380  68.9036270  16.5657230  21.7506140  69.0451260
  16.2965620  20.6650290  68.0248620  24.4480690  19.5414410  77.9706620
  24.4516750  19.1004360  77.1211160  25.3431810  19.8631740  78.0778440
  20.2983070  19.4240900  76.9300830  19.9583120  19.9016130  77.6867880
  19.5360390  18.9706020  76.5701930  24.5100840  20.5426490  70.9613380
  24.6313660  20.5012970  71.9099200  24.1249350  21.4050640  70.8060110
  23.5222340  22.8527630  70.3596680  22.9539240  22.4045880  69.7332590
  24.2311340  23.2120410  69.8261830  17.6129150  18.3459880  75.8465500
  17.3276070  17.9815550  76.6844120  17.5508010  17.6140340  75.2328640
  21.0669820  26.8485820  72.6323090  20.2932080  26.3083440  72.4721810
  21.7964450  26.3292430  72.2940850  31.8257800  25.8451180  78.4249480
  32.5456920  26.3406470  78.0345590  31.6239620  25.1669070  77.7803350
  27.2867740  17.2389140  72.5678870  26.4732350  16.7402310  72.4924180
  27.0929690  18.0787390  72.1515220  30.0016130  21.6108790  70.8641030
  30.8895750  21.9226020  70.6892370  29.9721220  20.7381040  70.4721610
  21.1107220  26.5166200  76.2701900  21.6285890  25.7134460  76.2158790
  20.6591240  26.4545340  77.1118730  25.9976720  27.7832480  71.5429200
  26.3392420  28.5274710  71.0472520  25.1689430  28.0963600  71.9054030
  32.2730400  22.9220630  70.3320890  32.1894120  23.3534850  69.4817330
  32.9924590  23.3818980  70.7647710  33.3017650  29.7762890  73.0603020
  32.6593810  29.1218510  73.3346740  32.9148310  30.1817980  72.2843690
  28.8804130  27.1048320  76.9074710  29.2327950  26.5076450  76.2476080
  27.9966460  26.7792550  77.0782960  24.9667410  27.8646010  74.3145120
  25.6538540  28.4115220  74.6952710  24.1799830  28.4086740  74.3494730
  17.1059810  23.4818830  69.8062200  17.9754660  23.7643630  70.0898120
  16.6150130  24.2954700  69.6911010  24.2694620  24.8692040  73.9270480
  24.7257400  25.6797290  74.1530670  23.9182830  24.5515180  74.7588970
  20.1706400  15.2129690  74.3993000  20.0421030  15.2047590  75.3477920
  19.3468420  15.5512780  74.0484010  31.6915030  28.6679350  69.5979370
  31.4652610  27.9509790  70.1904010  31.3011230  28.4191790  68.7601120
  17.4731060  32.6946210  70.3723830  17.8328700  33.2935550  69.7181100
  17.3323400  33.2406100  71.1458860  31.2731280  26.5851290  71.2593530
  30.9852980  27.0463980  72.0471410  32.0683450  26.1249060  71.5277750
  23.4899680  30.0777410  71.1897500  23.4809780  30.8107100  70.5742010
  22.5698040  29.8308990  71.2824460  19.0906320  25.2992300  71.9344260
  18.4834270  26.0391200  71.9439560  19.5655670  25.3891660  71.1082460
  32.0301140  18.4200060  72.4188710  31.4014300  18.5245730  71.7046940
  31.5353060  18.6396840  73.2082590  26.4759280  30.1405650  69.8522690
  26.5771260  29.9369640  68.9224670  25.5761020  29.8863930  70.0570470
  23.9985170  20.6986010  73.8346590  23.2901320  21.1672350  74.2760200
  24.2829650  20.0408020  74.4691780  28.0300600  17.4236670  75.2742380
  27.9068380  17.4422800  74.3251890  28.9785160  17.4715610  75.3940780
  25.1177390  32.6591970  74.5470360  25.3718890  32.6213360  73.6249730
  24.1689870  32.5325300  74.5398610  22.2020190  19.0071090  71.2097300
  23.0510720  19.4441240  71.1437490  21.8351460  19.3191350  72.0369360
  31.1229970  23.5783850  76.1228870  30.1820110  23.5934080  76.2976560
  31.4374040  22.7919810  76.5689170  21.1011610  25.2603450  69.6832830
  21.8674880  25.1484810  70.2458260  21.1786300  24.5641420  69.0309600
  19.7958370  22.6928520  70.3665720  19.8761960  21.7456030  70.4783120
  20.6878120  23.0235400  70.4726380  33.1255550  30.7492700  77.7983130
  33.2502970  31.5723870  78.2706940  33.9921110  30.5383430  77.4507280
  20.5973080  32.8423910  77.4700260  21.3335560  32.2939370  77.7408830
  20.9814000  33.7079920  77.3306250  17.4818560  28.9097480  73.3441770
  16.5558340  29.1518620  73.3347180  17.9474990  29.7371740  73.2226520
  23.7075390  32.0154220  69.2925830  24.5004000  32.3043050  68.8407620
  23.1879740  31.5846390  68.6138310  32.7605560  31.2424350  70.7162570
  32.4747070  30.8289490  69.9016750  32.5625110  32.1712060  70.5963090
  24.2252790  27.2357630  69.1568180  24.1203430  26.6209980  69.8829560
  24.0577010  26.7123520  68.3731190  27.4655520  26.2977660  69.7610170
  26.9165620  26.7446960  70.4052910  28.0874780  25.7926910  70.2847840
  23.1330640  25.2568580  71.6575470  23.5547060  25.0908450  72.5006860
  23.2581480  24.4468810  71.1630610  25.6458280  24.2806190  68.9052570
  26.1663940  23.5655210  68.5393720  26.2926680  24.9192060  69.2053080
  22.0289540  21.3301810  68.6033630  21.8278600  20.4669170  68.9646970
  21.8581590  21.2435170  67.6655230  29.5077850  16.1410040  71.1320510
  29.7880140  15.2977940  71.4879930  28.7343580  16.3733150  71.6459260
  20.8272340  18.4302430  68.5911510  21.1298240  18.4369860  67.6830660
  21.5666930  18.0800290  69.0879170  24.0457270  17.3737050  69.5767710
  23.6979270  16.6961040  68.9970160  24.2470040  16.9126560  70.3911100
  26.2106310  32.3617800  71.1954310  27.1057100  32.7002770  71.2173070
  26.2423940  31.6397210  70.5678590  19.8502470  27.7344850  69.4241310
  20.2877340  28.2774520  70.0798890  20.3350200  26.9091800  69.4337650
  17.0648270  30.5233880  76.8761570  17.3951280  29.6554940  76.6440210
  17.4939270  30.7292400  77.7066530  21.6610190  28.8542890  74.5363540
  21.3605730  28.7307860  75.4367450  21.5547680  27.9951480  74.1279270
  34.4302110  28.6339290  69.2390220  33.5995070  28.7015940  69.7097450
  34.6073940  29.5243410  68.9357080  33.8858570  25.3786770  71.7424420
  34.6477480  25.9483420  71.8484110  33.9012940  24.8113970  72.5132730
  17.3862910  23.9024700  75.9732080  16.7311750  23.6336340  75.3291780
  18.2240860  23.7929180  75.5234060  34.8918540  26.2336870  76.5866350
  35.2627370  25.4504190  76.1802320  35.5320470  26.9225970  76.4083650
  33.9377740  25.6721140  68.8996940  34.2126580  26.5800020  68.7716160
  33.7488480  25.6083670  69.8358930  30.3353350  18.6965990  70.1950570
  30.7538230  18.5096970  69.3547230  30.0289410  17.8445040  70.5053500
  33.8343080  23.6090130  73.8926370  33.4586680  22.8418060  73.4607660
  33.1046200  23.9912830  74.3801300  16.6000990  21.1123630  71.9157410
  15.6965070  21.3753830  71.7409070  17.0841610  21.3834800  71.1357370
  33.1094040  21.8347620  77.1933610  33.6331520  21.3410270  76.5623780
  33.6953460  21.9697980  77.9381180  19.1428200  20.1689170  69.8251790
  19.8519900  19.7472390  69.3399070  18.4268140  20.2364400  69.1935140
  18.7902360  16.2228500  68.8654440  19.5130490  16.7637440  69.1835660
  19.0626880  15.9491920  67.9895980  32.5994010  21.0920970  73.1326020
  33.0953130  20.8591840  73.9174900  32.4010080  20.2532810  72.7163660
  34.0281170  19.7281920  75.6663700  33.9180450  19.5737960  76.6045970
  34.7888760  19.2002860  75.4239110  34.9171440  17.5589840  68.9069840
  35.8420750  17.4271020  68.6988130  34.8947230  17.6382660  69.8606290
  34.9909930  18.3300500  71.5326550  34.1961430  18.2645620  72.0619460
  35.1953210  19.2651140  71.5211900  31.9328350  32.3692050  75.5264940
  32.5287420  32.0476620  74.8499360  32.1906500  31.8963870  76.3178210
  31.4229860  16.6597380  77.9825380  31.8637950  16.6042480  77.1346980
  31.1537450  17.5755390  78.0535560  33.2868430  16.2912620  75.9934200
  33.2256830  15.3473840  75.8465220  34.0660460  16.3992710  76.5387660
  17.5921180  32.4304980  74.9558150  17.4243220  31.7975660  75.6540040
  16.7255690  32.6364380  74.6052340  18.2149200  16.2621760  72.4590010
  18.9728560  16.3750640  71.8854040  17.7526370  17.0990960  72.4133440
  24.7563010  18.3761030  75.4492320  23.9437520  18.0017920  75.1088200
  25.2604650  17.6206110  75.7513510  29.2587990  15.0403480  76.6875390
  29.8617360  15.6123690  77.1623910  28.5180980  15.6042920  76.4649290
  32.4022590  15.4425040  71.9615670  32.5973220  16.3408490  72.2283100
  31.6152460  15.2112120  72.4548620  19.1983880  31.1238210  72.4008290
  18.6731500  31.5046240  71.6970250  19.1228460  31.7488980  73.1218000
  20.5874350  16.7885810  70.9991980  21.1167110  16.0015610  70.8699930
  21.2202670  17.4677000  71.2327510  22.7812190  16.5260950  74.0537370
  22.1514930  15.8248260  74.2207500  22.2417330  17.2865080  73.8370530
  33.9549200  32.6825750  73.7222230  34.1301390  31.9963490  73.0783150
  33.2570770  33.2072800  73.3298900  21.7976850  33.0720590  71.2757540
  22.5295670  32.7879870  70.7281430  22.0570520  32.8333870  72.1656920
  20.9591640  29.1885320  71.2803870  20.3300520  29.6570420  71.8289700
  21.0739470  28.3434540  71.7150060  28.4141360  23.2390980  57.4305070
  28.3335410  22.3245590  57.1596780  28.0005780  23.7358050  56.7244780
  26.5459400  25.0170000  59.3114340  25.7701500  24.5370440  59.6012910
  27.1972330  24.3375650  59.1370500  20.5625230  25.3289810  60.1890100
  19.7310110  25.0738520  60.5886610  21.1706210  25.4000580  60.9248020
  30.5666830  29.4230190  58.0913470  30.1048360  28.6517430  58.4200640
  31.3792380  29.4496260  58.5965920  20.5426490  29.3629900  60.3848120
  20.8454530  28.4727640  60.2058340  21.2870080  29.9200120  60.1570370
  18.9717180  20.2891700  53.9732490  18.0833880  20.6307670  53.8712370
  19.2558370  20.0892020  53.0813320  16.9350190  22.8897350  59.8572190
  17.5066300  22.1219550  59.8575830  16.9351730  23.1886110  58.9478800
  26.7930140  31.7088200  57.7117460  26.1741580  32.1645700  57.1411900
  27.6481920  31.8639660  57.3107160  25.9868390  27.6927190  59.3184500
  25.9176670  26.7517130  59.1573630  26.7488250  27.7828600  59.8907070
  18.1775060  18.2981710  61.6441120  17.9977900  17.4007460  61.9243880
  17.7755140  18.8453580  62.3188070  27.0173560  20.4997570  59.5453430
  27.3938380  19.6269450  59.4327100  26.9193070  20.8356270  58.6543870
  21.1478570  18.8723200  55.0070870  21.2545320  19.7726930  55.3139630
  20.2370930  18.8241170  54.7165520  30.7997680  17.9948010  56.4781770
  31.6207300  17.5044580  56.5207250  30.8331760  18.5845670  57.2313610
  18.7961730  20.7942210  60.2523460  19.4771840  21.0580580  60.8710860
  18.4809780  19.9543080  60.5861470  22.9886300  21.8409570  59.3396050
  23.4964520  22.3390540  59.9801070  23.5199540  21.0644770  59.1635410
  35.0897230  20.0114760  63.0425400  34.3849400  20.3996470  62.5240510
  35.3555150  20.7065050  63.6446330  21.2722400  16.4808130  63.6059470
  21.2740840  16.9980520  62.8005370  20.4426710  16.0038310  63.5829400
  27.6593490  26.5927440  55.1049370  27.0410760  27.0576890  54.5412090
  28.1716740  27.2854920  55.5218880  22.5225250  26.1203310  61.7832970
  22.1894630  26.7472230  62.4254040  22.6991930  26.6465190  61.0034640
  31.0359160  19.9348390  59.2509310  30.3314730  20.2233280  59.8312420
  31.3971320  20.7448500  58.8908870  20.9537730  18.1918090  61.6129920
  21.2954540  19.0360140  61.3183790  20.0153540  18.3401830  61.7295260
  21.7344350  28.0884110  63.5982150  22.3518350  28.7635190  63.3166600
  20.8737470  28.4972090  63.5069650  17.0276690  27.2783970  52.4789000
  16.6504670  27.7671070  51.7473900  17.2849760  27.9509250  53.1095530
  32.6521940  29.5523520  61.5136790  31.9685460  30.2222630  61.5053460
  33.1916230  29.7504170  60.7481650  34.1046080  19.3803180  59.6418520
  33.1570990  19.4142160  59.7733950  34.4296070  20.1942130  60.0267880
  24.6365620  15.6800360  57.9374510  24.9440600  15.1247250  57.2210010
  23.7066320  15.8144820  57.7547500  30.1880680  31.3967650  60.2281970
  30.2007840  30.9929940  59.3604230  29.6355900  32.1714940  60.1243400
  29.5866120  26.2997490  61.5564580  30.0034910  26.0857600  60.7218040
  30.3105940  26.5570280  62.1273200  27.0246380  23.7449190  54.6734630
  26.0975660  23.6786570  54.9023100  27.1771200  24.6829320  54.5589870
  27.0115460  20.0166190  51.6701790  26.0719130  20.1780150  51.7554250
  27.3298720  20.7351870  51.1237780  33.5328220  24.6984710  61.6480820
  32.7046850  24.7677800  61.1730950  34.1278700  25.2839020  61.1796650
  31.0543670  25.3069490  55.1769880  30.4356090  24.9689040  54.5296180
  31.0368120  24.6629250  55.8849070  30.4970230  21.4854030  62.5935690
  30.0841410  22.3107740  62.8475680  29.7646180  20.8999070  62.4012050
  22.6303020  24.2713930  57.4554360  22.2260020  23.5591180  56.9600260
  22.7166140  23.9267170  58.3442400  23.0984720  27.9581490  59.6193570
  22.8013010  27.3526960  58.9401350  24.0484540  27.9958800  59.5082930
  21.3431640  21.0457140  61.2353400  21.8946230  21.1552480  60.4606650
  21.8575150  21.4194740  61.9508630  31.1870330  31.5313360  63.2816670
  30.7100890  32.3385550  63.0889280  30.5032120  30.8791690  63.4342880
  22.1903150  27.6963180  66.2701370  21.2931680  27.9203150  66.5174770
  22.2156020  27.8198120  65.3212770  29.2308370  24.5456300  52.1842630
  29.6701650  23.7078730  52.0380450  29.9436790  25.1785700  52.2706770
  21.0174370  24.5676500  64.8458740  20.8782140  25.4399300  65.2146140
  20.1355730  24.2249310  64.7006680  27.3403750  29.4852370  56.1523870
  27.7799660  30.2276700  55.7379260  27.2790640  29.7278940  57.0762830
  22.8154720  30.5098200  67.0543890  22.7870150  30.9141150  66.1872320
  22.6519690  29.5808560  66.8915490  32.8125510  15.7999110  50.4983670
  32.4998170  15.8925940  51.3982740  33.5737980  16.3780140  50.4481100
  19.3307650  23.1658910  54.9561010  19.2105250  23.8921000  54.3442280
  19.0208540  22.3961820  54.4788920  34.7669540  31.2925300  68.3508060
  35.2429260  31.7708190  69.0297140  35.3876700  31.2242790  67.6253560
  16.9693020  26.3374050  60.7629650  17.0473440  26.4722820  59.8185370
  17.5834700  25.6289940  60.9557770  18.2140650  28.0374240  57.1735830
  17.8068730  28.1788830  56.3189430  19.1053660  27.7534400  56.9707040
  34.1702790  28.4838150  65.5108070  34.2965850  28.2450030  64.5925250
  34.2124170  27.6522690  65.9830150  28.0319530  32.1866150  64.0802880
  28.5464200  32.0974160  64.8825310  27.1888610  32.5325850  64.3730790
  22.4862310  32.2520020  55.2858500  22.3104790  31.3355560  55.0726300
  21.6318050  32.6107310  55.5256300  29.2749990  31.6071760  56.1433370
  29.7306940  30.8261140  56.4571990  29.6142510  32.3178580  56.6874550
  34.0226800  20.5370610  66.4757810  33.4071070  21.0450280  65.9473270
  33.7023220  19.6368940  66.4183750  17.0252540  27.3788220  63.3024110
  17.1883580  26.9093580  62.4843480  17.4904990  26.8711780  63.9672950
  21.7971310  16.5093980  58.3384680  21.3539460  17.2903520  58.0069200
  22.3556300  16.8323870  59.0455620  26.0841120  19.3762500  63.9420000
  25.6220490  19.5845520  64.7539940  25.6819230  18.5621850  63.6390670
  31.0845630  20.5971450  65.0716660  30.2339220  20.2977200  65.3925730
  30.9247420  20.8413460  64.1600480  28.1795340  22.0973200  67.1715450
  28.5048750  21.2636950  66.8317680  28.9675670  22.6201720  67.3193780
  24.9130130  16.1304680  53.2190510  24.2884310  16.1264550  53.9443820
  24.8260250  15.2635640  52.8226480  23.8347210  17.0541310  60.1974280
  24.1319540  17.9604140  60.1166300  24.3832770  16.5660090  59.5833850
  21.5885530  21.6327550  56.0665930  21.3626450  21.4164720  56.9712550
  20.8078060  22.0656010  55.7211900  28.8183290  21.6390920  54.6656580
  28.2192180  22.3626720  54.4820200  29.3662900  21.5767700  53.8833030
  24.0284740  22.5313130  66.7326200  23.9328340  21.5907860  66.5826600
  24.8716720  22.7528200  66.3374270  27.4248160  20.2754460  56.6959860
  27.8177730  20.5926660  55.8828550  27.7865010  19.3966340  56.8104380
  19.1595280  18.9426800  64.8859980  18.7658670  19.7902010  65.0932760
  18.4713680  18.3053170  65.0768620  25.7340330  19.0261770  67.9556720
  25.0438650  18.8333970  68.5902810  26.4772630  19.3096410  68.4881020
  16.4612330  16.8655260  58.9190060  16.1725380  17.4358120  59.6315040
  17.2058090  16.3859710  59.2821290  16.6482560  20.8075380  50.1292780
  16.5657230  21.7506140  50.2707770  16.2965620  20.6650290  49.2505130
  28.0103300  22.8660210  60.7910640  27.2784420  23.3747020  61.1400740
  27.6127640  22.0490190  60.4899420  24.4480690  19.5414410  59.1963130
  24.4516750  19.1004360  58.3467670  25.3431810  19.8631740  59.3034950
  20.2983070  19.4240900  58.1557340  19.9583120  19.9016130  58.9124390
  19.5360390  18.9706020  57.7958440  24.5100840  20.5426490  52.1869890
  24.6313660  20.5012970  53.1355710  24.1249350  21.4050640  52.0316620
  28.4729210  18.3193890  60.2033580  28.4901950  18.7702540  61.0475430
  28.2244790  17.4199530  60.4167020  23.5222340  22.8527630  51.5853190
  22.9539240  22.4045880  50.9589100  24.2311340  23.2120410  51.0518340
  31.8999960  15.7326070  66.0419960  32.2245730  15.0015730  66.5677940
  31.9356470  15.4139710  65.1400950  18.5991520  26.7539650  65.4619920
  18.2146310  26.1133320  66.0602880  18.9103710  27.4575770  66.0314650
  24.7488660  23.6016190  60.9428540  25.1158790  23.1274760  61.6889880
  24.5593720  24.4757760  61.2836880  17.6129150  18.3459880  57.0722010
  17.3276070  17.9815550  57.9100630  17.5508010  17.6140340  56.4585150
  22.5388030  22.6424830  63.2612750  22.2345100  23.5216810  63.4863110
  23.4934490  22.7024620  63.2970190  21.0669820  26.8485820  53.8579600
  20.2932080  26.3083440  53.6978320  21.7964450  26.3292430  53.5197360
  31.8257800  25.8451180  59.6505990  32.5456920  26.3406470  59.2602100
  31.6239620  25.1669070  59.0059860  27.2867740  17.2389140  53.7935380
  26.4732350  16.7402310  53.7180690  27.0929690  18.0787390  53.3771730
  27.2076600  25.9160240  65.5374990  27.1413910  24.9955910  65.2832580
  26.5781740  26.0135680  66.2519630  30.0016130  21.6108790  52.0897540
  30.8895750  21.9226020  51.9148880  29.9721220  20.7381040  51.6978120
  21.1107220  26.5166200  57.4958410  21.6285890  25.7134460  57.4415300
  20.6591240  26.4545340  58.3375240  18.5951760  23.4827570  64.4084110
  18.2366700  24.1481420  64.9957450  18.3006320  22.6511120  64.7796730
  21.7964880  23.9411810  67.2923660  21.4965020  24.0868990  66.3951480
  22.5676120  23.3817100  67.1997050  27.1393330  28.7380810  65.2878790
  27.1537870  27.8061770  65.0697700  26.4318430  28.8240570  65.9268560
  33.3504540  25.3788150  64.6347370  32.6252730  25.9716930  64.4376760
  33.8780000  25.3711690  63.8360740  28.8804130  27.1048320  58.1331220
  29.2327950  26.5076450  57.4732590  27.9966460  26.7792550  58.3039470
  24.9667410  27.8646010  55.5401630  25.6538540  28.4115220  55.9209220
  24.1799830  28.4086740  55.5751240  17.1059810  23.4818830  51.0318710
  17.9754660  23.7643630  51.3154630  16.6150130  24.2954700  50.9167520
  24.2694620  24.8692040  55.1526990  24.7257400  25.6797290  55.3787180
  23.9182830  24.5515180  55.9845480  26.5727230  30.3798380  62.3819290
  27.2169450  30.5857760  63.0592710  26.9356670  29.6186780  61.9290140
  20.1706400  15.2129690  55.6249510  20.0421030  15.2047590  56.5734430
  19.3468420  15.5512780  55.2740520  27.8459310  28.3830730  61.0996740
  28.4881540  27.6823890  61.2128910  28.3708660  29.1629170  60.9193630
  29.6196930  29.1825630  64.3032800  29.9553170  29.7692320  64.9810720
  28.6997270  29.0518340  64.5330590  17.4731060  32.6946210  51.5980340
  17.8328700  33.2935550  50.9437610  17.3323400  33.2406100  52.3715370
  17.1700330  16.9720810  65.0856210  16.4558850  17.1717730  65.6908820
  17.5895370  16.1960380  65.4571010  17.4572920  30.9601070  66.0722740
  17.5664040  30.0195810  65.9318130  16.8053480  31.2255820  65.4236470
  25.4485510  29.2316960  67.4720860  25.1282380  28.5126200  68.0166550
  24.7743870  29.9072030  67.5456920  23.4899680  30.0777410  52.4154010
  23.4809780  30.8107100  51.7998520  22.5698040  29.8308990  52.5080970
  19.0906320  25.2992300  53.1600770  18.4834270  26.0391200  53.1696070
  19.5655670  25.3891660  52.3338970  28.6639110  19.4643120  62.8357660
  29.0319930  18.6438330  63.1637230  27.8037310  19.5245010  63.2513310
  32.0301140  18.4200060  53.6445220  31.4014300  18.5245730  52.9303450
  31.5353060  18.6396840  54.4339100  23.9985170  20.6986010  55.0603100
  23.2901320  21.1672350  55.5016710  24.2829650  20.0408020  55.6948290
  25.6241100  22.1182710  63.0595630  26.1226350  22.5928530  63.7247480
  25.7664050  21.1946230  63.2665660  28.0300600  17.4236670  56.4998890
  27.9068380  17.4422800  55.5508400  28.9785160  17.4715610  56.6197290
  25.1177390  32.6591970  55.7726870  25.3718890  32.6213360  54.8506240
  24.1689870  32.5325300  55.7655120  22.2020190  19.0071090  52.4353810
  23.0510720  19.4441240  52.3694000  21.8351460  19.3191350  53.2625870
  32.8307960  18.3350670  63.9024020  32.3281560  19.0756070  64.2417830
  33.6464620  18.7234670  63.5860810  31.1229970  23.5783850  57.3485380
  30.1820110  23.5934080  57.5233070  31.4374040  22.7919810  57.7945680
  21.1011610  25.2603450  50.9089340  21.8674880  25.1484810  51.4714770
  21.1786300  24.5641420  50.2566110  19.7958370  22.6928520  51.5922230
  19.8761960  21.7456030  51.7039630  20.6878120  23.0235400  51.6982890
  20.5973080  32.8423910  58.6956770  21.3335560  32.2939370  58.9665340
  20.9814000  33.7079920  58.5562760  17.4818560  28.9097480  54.5698280
  16.5558340  29.1518620  54.5603690  17.9474990  29.7371740  54.4483030
  19.6031360  32.0269980  67.8842350  20.4044090  32.3482030  68.2977750
  19.0883180  31.6665560  68.6062260  23.7075390  32.0154220  50.5182340
  24.5004000  32.3043050  50.0664130  23.1879740  31.5846390  49.8394820
  28.4395990  28.1349850  67.8317760  27.8334150  28.1581450  67.0913510
  28.1350100  27.4032890  68.3685010  29.8696360  31.8630140  66.4427170
  30.8218110  31.7788160  66.3927410  29.7224580  32.5271850  67.1160960
  17.3229170  24.5143440  66.8278400  17.8268190  23.9350720  67.3994630
  16.5836590  24.7983670  67.3654770  24.2252790  27.2357630  50.3824690
  24.1203430  26.6209980  51.1086070  24.0577010  26.7123520  49.5987700
  24.3767110  25.9214430  66.3613920  23.6112780  26.4899430  66.2768590
  24.5583070  25.6290640  65.4682150  31.5190460  27.6519760  66.9188940
  32.2599930  27.9895520  66.4156400  30.7563140  27.8211820  66.3658710
  19.3552250  22.6573030  67.7228470  19.3957590  22.3586900  68.6313700
  20.2097750  23.0580640  67.5635990  23.1330640  25.2568580  52.8831980
  23.5547060  25.0908450  53.7263370  23.2581480  24.4468810  52.3887120
  21.2958060  21.2365130  65.6902960  20.7654520  20.7456080  65.0626300
  21.9646130  21.6649330  65.1560890  25.6458280  24.2806190  50.1309080
  26.1663940  23.5655210  49.7650230  26.2926680  24.9192060  50.4309590
  30.1936120  25.7034590  65.4544150  30.6077140  25.8579670  66.3034570
  29.2587120  25.8289810  65.6169930  30.6658290  23.0430750  67.4583300
  31.2479060  22.2883070  67.3703780  30.8420060  23.5738190  66.6814780
  21.7830360  18.2027500  65.7700250  21.6887230  17.5848250  65.0451120
  21.2027750  18.9293790  65.5430160  24.5491800  16.7600740  62.8027640
  24.1009100  16.7825000  61.9573190  23.9157000  16.3619760  63.3997940
  24.9551350  25.6555070  63.4240080  25.3739460  26.4987800  63.2516320
  24.0359980  25.7927110  63.1946860  27.2915250  23.3871250  64.8077920
  27.4111460  22.7912390  65.5472760  28.1509250  23.4240940  64.3879220
  29.6303150  23.9408440  63.3840430  29.1038370  24.4651060  62.7805570
  29.9734490  24.5735830  64.0150160  22.0289540  21.3301810  49.8290140
  21.8278600  20.4669170  50.1903480  21.8581590  21.2435170  48.8911740
  22.8058770  31.9608080  64.5397810  22.2679860  32.6854140  64.2206510
  23.0592730  31.4838420  63.7495150  24.0584020  19.9292600  66.0653740
  24.6483710  19.6208450  66.7531560  23.2404260  19.4572350  66.2213640
  28.8777450  19.5458410  66.2986760  28.1892970  18.8839950  66.2336750
  29.5983470  19.0996680  66.7435220  29.5077850  16.1410040  52.3577020
  29.7880140  15.2977940  52.7136440  28.7343580  16.3733150  52.8715770
  20.8272340  18.4302430  49.8168020  21.1298240  18.4369860  48.9087170
  21.5666930  18.0800290  50.3135680  25.6620980  33.1959290  64.7984460
  25.5879680  34.0994430  65.1056830  24.7599820  32.8771190  64.7706530
  24.0457270  17.3737050  50.8024220  23.6979270  16.6961040  50.2226670
  24.2470040  16.9126560  51.6167610  19.8502470  27.7344850  50.6497820
  20.2877340  28.2774520  51.3055400  20.3350200  26.9091800  50.6594160
  17.0648270  30.5233880  58.1018080  17.3951280  29.6554940  57.8696720
  17.4939270  30.7292400  58.9323040  21.6610190  28.8542890  55.7620050
  21.3605730  28.7307860  56.6623960  21.5547680  27.9951480  55.3535780
  17.5538480  31.3904470  60.8399710  17.1169470  31.5705270  61.6723860
  18.1216160  32.1479090  60.6981430  33.1900660  30.8921470  65.1277020
  32.5902650  30.9514030  64.3840940  33.3194560  29.9526450  65.2573870
  17.3862910  23.9024700  57.1988590  16.7311750  23.6336340  56.5548290
  18.2240860  23.7929180  56.7490570  31.8752300  27.6173450  63.2253180
  31.0612140  28.0470610  63.4878970  32.2826500  28.2291860  62.6122230
  30.3353350  18.6965990  51.4207080  30.7538230  18.5096970  50.5803740
  30.0289410  17.8445040  51.7310010  33.8343080  23.6090130  55.1182880
  33.4586680  22.8418060  54.6864170  33.1046200  23.9912830  55.6057810
  18.4238840  24.2877270  61.7391930  18.7911880  24.2004670  62.6187950
  17.8549660  23.5243820  61.6398790  33.2242700  22.7561650  64.7522400
  32.9928790  22.5274400  63.8520350  33.4847250  23.6761200  64.7067290
  17.9754840  21.1986360  65.6450350  17.0810890  21.1653120  65.9844060
  18.5152390  21.3973150  66.4101600  31.6630770  17.9818080  67.5302100
  32.5400950  17.9901480  67.9136100  31.6751610  17.2448920  66.9194450
  16.6000990  21.1123630  53.1413920  15.6965070  21.3753830  52.9665580
  17.0841610  21.3834800  52.3613880  33.1094040  21.8347620  58.4190120
  33.6331520  21.3410270  57.7880290  33.6953460  21.9697980  59.1637690
  33.2883760  21.9187490  61.9409670  32.3386470  21.8851030  62.0554660
  33.4696770  22.8287600  61.7059440  19.1428200  20.1689170  51.0508300
  19.8519900  19.7472390  50.5655580  18.4268140  20.2364400  50.4191650
  18.7902360  16.2228500  50.0910950  19.5130490  16.7637440  50.4092170
  19.0626880  15.9491920  49.2152490  32.5994010  21.0920970  54.3582530
  33.0953130  20.8591840  55.1431410  32.4010080  20.2532810  53.9420170
  18.4794550  15.4734690  59.9933570  19.1270740  14.9232070  59.5528730
  18.8996390  15.7277840  60.8149380  34.0281170  19.7281920  56.8920210
  33.9180450  19.5737960  57.8302480  34.7888760  19.2002860  56.6495620
  32.3746890  15.6676050  63.3503210  33.0119110  16.2810190  63.7162400
  32.5221780  15.7036710  62.4052440  34.9171440  17.5589840  50.1326350
  35.8420750  17.4271020  49.9244640  34.8947230  17.6382660  51.0862800
  34.9909930  18.3300500  52.7583060  34.1961430  18.2645620  53.2875970
  35.1953210  19.2651140  52.7468410  18.2326550  15.6290360  62.7358890
  17.8841370  16.0854180  63.5017070  17.9014250  14.7347490  62.8181320
  19.8390920  28.8009960  66.9012080  19.7960550  28.4302870  67.7826540
  19.9701930  29.7387530  67.0413900  23.5396950  30.3569550  62.5021800
  23.2988310  30.6244110  61.6152320  24.4799590  30.5275280  62.5572660
  25.7451370  16.8202240  66.2578310  25.6840260  17.4124070  67.0073720
  26.6851750  16.7128200  66.1128570  28.3825930  16.4772300  65.8970600
  28.9966340  16.7951590  65.2351680  28.9275490  15.9920890  66.5166460
  34.8001110  32.3763930  63.3032440  34.3059390  32.7732800  62.5859570
  34.1914400  31.7513140  63.6969720  18.9047190  15.1566560  66.0109660
  19.4530180  14.9754610  65.2475770  18.9702500  14.3660670  66.5465970
  19.6778950  31.7472210  64.0209860  19.0839270  31.6156910  64.7599900
  19.6702790  30.9110350  63.5551960  29.1233970  15.0404440  62.2239890
  28.2493810  15.3739550  62.0212820  29.0144720  14.5677620  63.0491760
  30.0305950  17.2475310  63.6081610  29.7019310  16.4327070  63.2283340
  30.9788250  17.2045120  63.4847300  32.4840560  33.0187350  60.5819180
  32.0243530  33.7703160  60.2077200  31.8553020  32.2993820  60.5233980
  19.3091180  29.1130590  62.9717900  18.5825240  28.4935880  62.9043850
  19.3700330  29.5071200  62.1015980  22.9136280  31.3275590  59.7567310
  23.4301300  30.7162950  59.2315570  23.5633660  31.8304370  60.2478320
  25.6531780  32.2184080  60.5836290  25.9409590  31.9638380  59.7069300
  26.1655000  31.6661440  61.1741860  26.8708790  15.9574280  61.1632800
  26.0880580  16.4319780  61.4429560  26.5771720  15.0529110  61.0545980
  31.4229860  16.6597380  59.2081890  31.8637950  16.6042480  58.3603490
  31.1537450  17.5755390  59.2792070  33.2868430  16.2912620  57.2190710
  33.2256830  15.3473840  57.0721730  34.0660460  16.3992710  57.7644170
  17.5921180  32.4304980  56.1814660  17.4243220  31.7975660  56.8796550
  16.7255690  32.6364380  55.8308850  18.2149200  16.2621760  53.6846520
  18.9728560  16.3750640  53.1110550  17.7526370  17.0990960  53.6389950
  24.7563010  18.3761030  56.6748830  23.9437520  18.0017920  56.3344710
  25.2604650  17.6206110  56.9770020  29.2587990  15.0403480  57.9131900
  29.8617360  15.6123690  58.3880420  28.5180980  15.6042920  57.6905800
  32.4022590  15.4425040  53.1872180  32.5973220  16.3408490  53.4539610
  31.6152460  15.2112120  53.6805130  19.1983880  31.1238210  53.6264800
  18.6731500  31.5046240  52.9226760  19.1228460  31.7488980  54.3474510
  20.5874350  16.7885810  52.2248490  21.1167110  16.0015610  52.0956440
  21.2202670  17.4677000  52.4584020  22.7812190  16.5260950  55.2793880
  22.1514930  15.8248260  55.4464010  22.2417330  17.2865080  55.0627040
  25.7204140  33.1400180  67.9504490  26.6471450  32.9044450  67.9940450
  25.7054570  33.9672180  67.4690520  22.9067750  15.8044930  67.7146370
  22.6252020  16.3078530  66.9507190  23.2887450  15.0066680  67.3488500
  21.7976850  33.0720590  52.5014050  22.5295670  32.7879870  51.9537940
  22.0570520  32.8333870  53.3913430  20.9591640  29.1885320  52.5060380
  20.3300520  29.6570420  53.0546210  21.0739470  28.3434540  52.9406570
  29.5083210  15.2198510  68.2926840  29.3948660  15.5393120  69.1878360
  30.3252950  15.6211020  67.9964120  32.2881700  32.3670040  67.7745530
  33.0807020  31.8719270  67.5671490  32.5814850  33.0460180  68.3821140
  28.4141360  23.2390980  38.6561580  28.3335410  22.3245590  38.3853290
  28.0005780  23.7358050  37.9501290  26.5459400  25.0170000  40.5370850
  25.7701500  24.5370440  40.8269420  27.1972330  24.3375650  40.3627010
  20.5625230  25.3289810  41.4146610  19.7310110  25.0738520  41.8143120
  21.1706210  25.4000580  42.1504530  30.5666830  29.4230190  39.3169980
  30.1048360  28.6517430  39.6457150  31.3792380  29.4496260  39.8222430
  20.5426490  29.3629900  41.6104630  20.8454530  28.4727640  41.4314850
  21.2870080  29.9200120  41.3826880  18.9717180  20.2891700  35.1989000
  18.0833880  20.6307670  35.0968880  19.2558370  20.0892020  34.3069830
  16.9350190  22.8897350  41.0828700  17.5066300  22.1219550  41.0832340
  16.9351730  23.1886110  40.1735310  26.7930140  31.7088200  38.9373970
  26.1741580  32.1645700  38.3668410  27.6481920  31.8639660  38.5363670
  25.9868390  27.6927190  40.5441010  25.9176670  26.7517130  40.3830140
  26.7488250  27.7828600  41.1163580  18.1775060  18.2981710  42.8697630
  17.9977900  17.4007460  43.1500390  17.7755140  18.8453580  43.5444580
  27.0173560  20.4997570  40.7709940  27.3938380  19.6269450  40.6583610
  26.9193070  20.8356270  39.8800380  21.1478570  18.8723200  36.2327380
  21.2545320  19.7726930  36.5396140  20.2370930  18.8241170  35.9422030
  30.7997680  17.9948010  37.7038280  31.6207300  17.5044580  37.7463760
  30.8331760  18.5845670  38.4570120  18.7961730  20.7942210  41.4779970
  19.4771840  21.0580580  42.0967370  18.4809780  19.9543080  41.8117980
  22.9886300  21.8409570  40.5652560  23.4964520  22.3390540  41.2057580
  23.5199540  21.0644770  40.3891920  21.2722400  16.4808130  44.8315980
  21.2740840  16.9980520  44.0261880  20.4426710  16.0038310  44.8085910
  27.6593490  26.5927440  36.3305880  27.0410760  27.0576890  35.7668600
  28.1716740  27.2854920  36.7475390  22.5225250  26.1203310  43.0089480
  22.1894630  26.7472230  43.6510550  22.6991930  26.6465190  42.2291150
  31.0359160  19.9348390  40.4765820  30.3314730  20.2233280  41.0568930
  31.3971320  20.7448500  40.1165380  20.9537730  18.1918090  42.8386430
  21.2954540  19.0360140  42.5440300  20.0153540  18.3401830  42.9551770
  21.7344350  28.0884110  44.8238660  22.3518350  28.7635190  44.5423110
  20.8737470  28.4972090  44.7326160  17.0276690  27.2783970  33.7045510
  16.6504670  27.7671070  32.9730410  17.2849760  27.9509250  34.3352040
  34.1046080  19.3803180  40.8675030  33.1570990  19.4142160  40.9990460
  34.4296070  20.1942130  41.2524390  24.6365620  15.6800360  39.1631020
  24.9440600  15.1247250  38.4466520  23.7066320  15.8144820  38.9804010
  30.1880680  31.3967650  41.4538480  30.2007840  30.9929940  40.5860740
  29.6355900  32.1714940  41.3499910  27.0246380  23.7449190  35.8991140
  26.0975660  23.6786570  36.1279610  27.1771200  24.6829320  35.7846380
  27.0115460  20.0166190  32.8958300  26.0719130  20.1780150  32.9810760
  27.3298720  20.7351870  32.3494290  31.0543670  25.3069490  36.4026390
  30.4356090  24.9689040  35.7552690  31.0368120  24.6629250  37.1105580
  30.4970230  21.4854030  43.8192200  30.0841410  22.3107740  44.0732190
  29.7646180  20.8999070  43.6268560  22.6303020  24.2713930  38.6810870
  22.2260020  23.5591180  38.1856770  22.7166140  23.9267170  39.5698910
  23.0984720  27.9581490  40.8450080  22.8013010  27.3526960  40.1657860
  24.0484540  27.9958800  40.7339440  21.3431640  21.0457140  42.4609910
  21.8946230  21.1552480  41.6863160  21.8575150  21.4194740  43.1765140
  31.1870330  31.5313360  44.5073180  30.7100890  32.3385550  44.3145790
  30.5032120  30.8791690  44.6599390  22.1903150  27.6963180  47.4957880
  21.2931680  27.9203150  47.7431280  22.2156020  27.8198120  46.5469280
  29.2308370  24.5456300  33.4099140  29.6701650  23.7078730  33.2636960
  29.9436790  25.1785700  33.4963280  21.0174370  24.5676500  46.0715250
  20.8782140  25.4399300  46.4402650  20.1355730  24.2249310  45.9263190
  27.3403750  29.4852370  37.3780380  27.7799660  30.2276700  36.9635770
  27.2790640  29.7278940  38.3019340  22.8154720  30.5098200  48.2800400
  22.7870150  30.9141150  47.4128830  22.6519690  29.5808560  48.1172000
  32.8125510  15.7999110  31.7240180  32.4998170  15.8925940  32.6239250
  33.5737980  16.3780140  31.6737610  19.3307650  23.1658910  36.1817520
  19.2105250  23.8921000  35.5698790  19.0208540  22.3961820  35.7045430
  16.9693020  26.3374050  41.9886160  17.0473440  26.4722820  41.0441880
  17.5834700  25.6289940  42.1814280  18.2140650  28.0374240  38.3992340
  17.8068730  28.1788830  37.5445940  19.1053660  27.7534400  38.1963550
  28.0319530  32.1866150  45.3059390  28.5464200  32.0974160  46.1081820
  27.1888610  32.5325850  45.5987300  22.4862310  32.2520020  36.5115010
  22.3104790  31.3355560  36.2982810  21.6318050  32.6107310  36.7512810
  29.7100060  29.9809050  33.2941390  29.0165220  29.9786340  32.6343670
  30.4522920  29.5568370  32.8635560  29.2749990  31.6071760  37.3689880
  29.7306940  30.8261140  37.6828500  29.6142510  32.3178580  37.9131060
  17.0252540  27.3788220  44.5280620  17.1883580  26.9093580  43.7099990
  17.4904990  26.8711780  45.1929460  21.7971310  16.5093980  39.5641190
  21.3539460  17.2903520  39.2325710  22.3556300  16.8323870  40.2712130
  26.0841120  19.3762500  45.1676510  25.6220490  19.5845520  45.9796450
  25.6819230  18.5621850  44.8647180  31.0845630  20.5971450  46.2973170
  30.2339220  20.2977200  46.6182240  30.9247420  20.8413460  45.3856990
  28.1795340  22.0973200  48.3971960  28.5048750  21.2636950  48.0574190
  28.9675670  22.6201720  48.5450290  24.9130130  16.1304680  34.4447020
  24.2884310  16.1264550  35.1700330  24.8260250  15.2635640  34.0482990
  23.8347210  17.0541310  41.4230790  24.1319540  17.9604140  41.3422810
  24.3832770  16.5660090  40.8090360  21.5885530  21.6327550  37.2922440
  21.3626450  21.4164720  38.1969060  20.8078060  22.0656010  36.9468410
  28.8183290  21.6390920  35.8913090  28.2192180  22.3626720  35.7076710
  29.3662900  21.5767700  35.1089540  24.0284740  22.5313130  47.9582710
  23.9328340  21.5907860  47.8083110  24.8716720  22.7528200  47.5630780
  27.4248160  20.2754460  37.9216370  27.8177730  20.5926660  37.1085060
  27.7865010  19.3966340  38.0360890  19.1595280  18.9426800  46.1116490
  18.7658670  19.7902010  46.3189270  18.4713680  18.3053170  46.3025130
  25.7340330  19.0261770  49.1813230  25.0438650  18.8333970  49.8159320
  26.4772630  19.3096410  49.7137530  16.4612330  16.8655260  40.1446570
  16.1725380  17.4358120  40.8571550  17.2058090  16.3859710  40.5077800
  16.6482560  20.8075380  31.3549290  16.5657230  21.7506140  31.4964280
  16.2965620  20.6650290  30.4761640  28.0103300  22.8660210  42.0167150
  27.2784420  23.3747020  42.3657250  27.6127640  22.0490190  41.7155930
  24.4480690  19.5414410  40.4219640  24.4516750  19.1004360  39.5724180
  25.3431810  19.8631740  40.5291460  20.2983070  19.4240900  39.3813850
  19.9583120  19.9016130  40.1380900  19.5360390  18.9706020  39.0214950
  24.5100840  20.5426490  33.4126400  24.6313660  20.5012970  34.3612220
  24.1249350  21.4050640  33.2573130  28.4729210  18.3193890  41.4290090
  28.4901950  18.7702540  42.2731940  28.2244790  17.4199530  41.6423530
  23.5222340  22.8527630  32.8109700  22.9539240  22.4045880  32.1845610
  24.2311340  23.2120410  32.2774850  31.8999960  15.7326070  47.2676470
  32.2245730  15.0015730  47.7934450  31.9356470  15.4139710  46.3657460
  18.5991520  26.7539650  46.6876430  18.2146310  26.1133320  47.2859390
  18.9103710  27.4575770  47.2571160  24.7488660  23.6016190  42.1685050
  25.1158790  23.1274760  42.9146390  24.5593720  24.4757760  42.5093390
  17.6129150  18.3459880  38.2978520  17.3276070  17.9815550  39.1357140
  17.5508010  17.6140340  37.6841660  22.5388030  22.6424830  44.4869260
  22.2345100  23.5216810  44.7119620  23.4934490  22.7024620  44.5226700
  21.0669820  26.8485820  35.0836110  20.2932080  26.3083440  34.9234830
  21.7964450  26.3292430  34.7453870  27.2867740  17.2389140  35.0191890
  26.4732350  16.7402310  34.9437200  27.0929690  18.0787390  34.6028240
  27.2076600  25.9160240  46.7631500  27.1413910  24.9955910  46.5089090
  26.5781740  26.0135680  47.4776140  30.0016130  21.6108790  33.3154050
  30.8895750  21.9226020  33.1405390  29.9721220  20.7381040  32.9234630
  21.1107220  26.5166200  38.7214920  21.6285890  25.7134460  38.6671810
  20.6591240  26.4545340  39.5631750  25.9976720  27.7832480  33.9942220
  26.3392420  28.5274710  33.4985540  25.1689430  28.0963600  34.3567050
  18.5951760  23.4827570  45.6340620  18.2366700  24.1481420  46.2213960
  18.3006320  22.6511120  46.0053240  21.7964880  23.9411810  48.5180170
  21.4965020  24.0868990  47.6207990  22.5676120  23.3817100  48.4253560
  27.1393330  28.7380810  46.5135300  27.1537870  27.8061770  46.2954210
  26.4318430  28.8240570  47.1525070  32.2730400  22.9220630  32.7833910
  32.1894120  23.3534850  31.9330350  32.9924590  23.3818980  33.2160730
  28.8804130  27.1048320  39.3587730  29.2327950  26.5076450  38.6989100
  27.9966460  26.7792550  39.5295980  24.9667410  27.8646010  36.7658140
  25.6538540  28.4115220  37.1465730  24.1799830  28.4086740  36.8007750
  17.1059810  23.4818830  32.2575220  17.9754660  23.7643630  32.5411140
  16.6150130  24.2954700  32.1424030  24.2694620  24.8692040  36.3783500
  24.7257400  25.6797290  36.6043690  23.9182830  24.5515180  37.2101990
  26.5727230  30.3798380  43.6075800  27.2169450  30.5857760  44.2849220
  26.9356670  29.6186780  43.1546650  20.1706400  15.2129690  36.8506020
  20.0421030  15.2047590  37.7990940  19.3468420  15.5512780  36.4997030
  27.8459310  28.3830730  42.3253250  28.4881540  27.6823890  42.4385420
  28.3708660  29.1629170  42.1450140  31.6915030  28.6679350  32.0492390
  31.4652610  27.9509790  32.6417030  31.3011230  28.4191790  31.2114140
  17.4731060  32.6946210  32.8236850  17.8328700  33.2935550  32.1694120
  17.3323400  33.2406100  33.5971880  17.1700330  16.9720810  46.3112720
  16.4558850  17.1717730  46.9165330  17.5895370  16.1960380  46.6827520
  31.2731280  26.5851290  33.7106550  30.9852980  27.0463980  34.4984430
  32.0683450  26.1249060  33.9790770  17.4572920  30.9601070  47.2979250
  17.5664040  30.0195810  47.1574640  16.8053480  31.2255820  46.6492980
  25.4485510  29.2316960  48.6977370  25.1282380  28.5126200  49.2423060
  24.7743870  29.9072030  48.7713430  23.4899680  30.0777410  33.6410520
  23.4809780  30.8107100  33.0255030  22.5698040  29.8308990  33.7337480
  19.0906320  25.2992300  34.3857280  18.4834270  26.0391200  34.3952580
  19.5655670  25.3891660  33.5595480  28.6639110  19.4643120  44.0614170
  29.0319930  18.6438330  44.3893740  27.8037310  19.5245010  44.4769820
  32.0301140  18.4200060  34.8701730  31.4014300  18.5245730  34.1559960
  31.5353060  18.6396840  35.6595610  26.4759280  30.1405650  32.3035710
  26.5771260  29.9369640  31.3737690  25.5761020  29.8863930  32.5083490
  23.9985170  20.6986010  36.2859610  23.2901320  21.1672350  36.7273220
  24.2829650  20.0408020  36.9204800  25.6241100  22.1182710  44.2852140
  26.1226350  22.5928530  44.9503990  25.7664050  21.1946230  44.4922170
  28.0300600  17.4236670  37.7255400  27.9068380  17.4422800  36.7764910
  28.9785160  17.4715610  37.8453800  25.1177390  32.6591970  36.9983380
  25.3718890  32.6213360  36.0762750  24.1689870  32.5325300  36.9911630
  22.2020190  19.0071090  33.6610320  23.0510720  19.4441240  33.5950510
  21.8351460  19.3191350  34.4882380  32.8307960  18.3350670  45.1280530
  32.3281560  19.0756070  45.4674340  33.6464620  18.7234670  44.8117320
  31.1229970  23.5783850  38.5741890  30.1820110  23.5934080  38.7489580
  31.4374040  22.7919810  39.0202190  21.1011610  25.2603450  32.1345850
  21.8674880  25.1484810  32.6971280  21.1786300  24.5641420  31.4822620
  19.7958370  22.6928520  32.8178740  19.8761960  21.7456030  32.9296140
  20.6878120  23.0235400  32.9239400  20.5973080  32.8423910  39.9213280
  21.3335560  32.2939370  40.1921850  20.9814000  33.7079920  39.7819270
  17.4818560  28.9097480  35.7954790  16.5558340  29.1518620  35.7860200
  17.9474990  29.7371740  35.6739540  19.6031360  32.0269980  49.1098860
  20.4044090  32.3482030  49.5234260  19.0883180  31.6665560  49.8318770
  23.7075390  32.0154220  31.7438850  24.5004000  32.3043050  31.2920640
  23.1879740  31.5846390  31.0651330  29.8696360  31.8630140  47.6683680
  30.8218110  31.7788160  47.6183920  29.7224580  32.5271850  48.3417470
  17.3229170  24.5143440  48.0534910  17.8268190  23.9350720  48.6251140
  16.5836590  24.7983670  48.5911280  24.2252790  27.2357630  31.6081200
  24.1203430  26.6209980  32.3342580  24.0577010  26.7123520  30.8244210
  24.3767110  25.9214430  47.5870430  23.6112780  26.4899430  47.5025100
  24.5583070  25.6290640  46.6938660  27.4655520  26.2977660  32.2123190
  26.9165620  26.7446960  32.8565930  28.0874780  25.7926910  32.7360860
  19.3552250  22.6573030  48.9484980  19.3957590  22.3586900  49.8570210
  20.2097750  23.0580640  48.7892500  23.1330640  25.2568580  34.1088490
  23.5547060  25.0908450  34.9519880  23.2581480  24.4468810  33.6143630
  21.2958060  21.2365130  46.9159470  20.7654520  20.7456080  46.2882810
  21.9646130  21.6649330  46.3817400  25.6458280  24.2806190  31.3565590
  26.1663940  23.5655210  30.9906740  26.2926680  24.9192060  31.6566100
  21.7830360  18.2027500  46.9956760  21.6887230  17.5848250  46.2707630
  21.2027750  18.9293790  46.7686670  24.5491800  16.7600740  44.0284150
  24.1009100  16.7825000  43.1829700  23.9157000  16.3619760  44.6254450
  24.9551350  25.6555070  44.6496590  25.3739460  26.4987800  44.4772830
  24.0359980  25.7927110  44.4203370  27.2915250  23.3871250  46.0334430
  27.4111460  22.7912390  46.7729270  28.1509250  23.4240940  45.6135730
  22.0289540  21.3301810  31.0546650  21.8278600  20.4669170  31.4159990
  21.8581590  21.2435170  30.1168250  22.8058770  31.9608080  45.7654320
  22.2679860  32.6854140  45.4463020  23.0592730  31.4838420  44.9751660
  24.0584020  19.9292600  47.2910250  24.6483710  19.6208450  47.9788070
  23.2404260  19.4572350  47.4470150  28.8777450  19.5458410  47.5243270
  28.1892970  18.8839950  47.4593260  29.5983470  19.0996680  47.9691730
  29.5077850  16.1410040  33.5833530  29.7880140  15.2977940  33.9392950
  28.7343580  16.3733150  34.0972280  20.8272340  18.4302430  31.0424530
  21.1298240  18.4369860  30.1343680  21.5666930  18.0800290  31.5392190
  25.6620980  33.1959290  46.0240970  25.5879680  34.0994430  46.3313340
  24.7599820  32.8771190  45.9963040  24.0457270  17.3737050  32.0280730
  23.6979270  16.6961040  31.4483180  24.2470040  16.9126560  32.8424120
  26.2106310  32.3617800  33.6467330  27.1057100  32.7002770  33.6686090
  26.2423940  31.6397210  33.0191610  19.8502470  27.7344850  31.8754330
  20.2877340  28.2774520  32.5311910  20.3350200  26.9091800  31.8850670
  17.0648270  30.5233880  39.3274590  17.3951280  29.6554940  39.0953230
  17.4939270  30.7292400  40.1579550  21.6610190  28.8542890  36.9876560
  21.3605730  28.7307860  37.8880470  21.5547680  27.9951480  36.5792290
  17.5538480  31.3904470  42.0656220  17.1169470  31.5705270  42.8980370
  18.1216160  32.1479090  41.9237940  33.8858570  25.3786770  34.1937440
  34.6477480  25.9483420  34.2997130  33.9012940  24.8113970  34.9645750
  17.3862910  23.9024700  38.4245100  16.7311750  23.6336340  37.7804800
  18.2240860  23.7929180  37.9747080  30.3353350  18.6965990  32.6463590
  30.7538230  18.5096970  31.8060250  30.0289410  17.8445040  32.9566520
  33.8343080  23.6090130  36.3439390  33.4586680  22.8418060  35.9120680
  33.1046200  23.9912830  36.8314320  18.4238840  24.2877270  42.9648440
  18.7911880  24.2004670  43.8444460  17.8549660  23.5243820  42.8655300
  17.9754840  21.1986360  46.8706860  17.0810890  21.1653120  47.2100570
  18.5152390  21.3973150  47.6358110  31.6630770  17.9818080  48.7558610
  32.5400950  17.9901480  49.1392610  31.6751610  17.2448920  48.1450960
  16.6000990  21.1123630  34.3670430  15.6965070  21.3753830  34.1922090
  17.0841610  21.3834800  33.5870390  19.1428200  20.1689170  32.2764810
  19.8519900  19.7472390  31.7912090  18.4268140  20.2364400  31.6448160
  18.7902360  16.2228500  31.3167460  19.5130490  16.7637440  31.6348680
  19.0626880  15.9491920  30.4409000  32.5994010  21.0920970  35.5839040
  33.0953130  20.8591840  36.3687920  32.4010080  20.2532810  35.1676680
  18.4794550  15.4734690  41.2190080  19.1270740  14.9232070  40.7785240
  18.8996390  15.7277840  42.0405890  34.0281170  19.7281920  38.1176720
  33.9180450  19.5737960  39.0558990  34.7888760  19.2002860  37.8752130
  32.3746890  15.6676050  44.5759720  33.0119110  16.2810190  44.9418910
  32.5221780  15.7036710  43.6308950  34.9171440  17.5589840  31.3582860
  35.8420750  17.4271020  31.1501150  34.8947230  17.6382660  32.3119310
  34.9909930  18.3300500  33.9839570  34.1961430  18.2645620  34.5132480
  35.1953210  19.2651140  33.9724920  18.2326550  15.6290360  43.9615400
  17.8841370  16.0854180  44.7273580  17.9014250  14.7347490  44.0437830
  19.8390920  28.8009960  48.1268590  19.7960550  28.4302870  49.0083050
  19.9701930  29.7387530  48.2670410  23.5396950  30.3569550  43.7278310
  23.2988310  30.6244110  42.8408830  24.4799590  30.5275280  43.7829170
  25.7451370  16.8202240  47.4834820  25.6840260  17.4124070  48.2330230
  26.6851750  16.7128200  47.3385080  28.3825930  16.4772300  47.1227110
  28.9966340  16.7951590  46.4608190  28.9275490  15.9920890  47.7422970
  18.9047190  15.1566560  47.2366170  19.4530180  14.9754610  46.4732280
  18.9702500  14.3660670  47.7722480  19.6778950  31.7472210  45.2466370
  19.0839270  31.6156910  45.9856410  19.6702790  30.9110350  44.7808470
  29.1233970  15.0404440  43.4496400  28.2493810  15.3739550  43.2469330
  29.0144720  14.5677620  44.2748270  30.0305950  17.2475310  44.8338120
  29.7019310  16.4327070  44.4539850  30.9788250  17.2045120  44.7103810
  32.4840560  33.0187350  41.8075690  32.0243530  33.7703160  41.4333710
  31.8553020  32.2993820  41.7490490  19.3091180  29.1130590  44.1974410
  18.5825240  28.4935880  44.1300360  19.3700330  29.5071200  43.3272490
  22.9136280  31.3275590  40.9823820  23.4301300  30.7162950  40.4572080
  23.5633660  31.8304370  41.4734830  25.6531780  32.2184080  41.8092800
  25.9409590  31.9638380  40.9325810  26.1655000  31.6661440  42.3998370
  26.8708790  15.9574280  42.3889310  26.0880580  16.4319780  42.6686070
  26.5771720  15.0529110  42.2802490  31.4229860  16.6597380  40.4338400
  31.8637950  16.6042480  39.5860000  31.1537450  17.5755390  40.5048580
  33.2868430  16.2912620  38.4447220  33.2256830  15.3473840  38.2978240
  34.0660460  16.3992710  38.9900680  17.5921180  32.4304980  37.4071170
  17.4243220  31.7975660  38.1053060  16.7255690  32.6364380  37.0565360
  18.2149200  16.2621760  34.9103030  18.9728560  16.3750640  34.3367060
  17.7526370  17.0990960  34.8646460  24.7563010  18.3761030  37.9005340
  23.9437520  18.0017920  37.5601220  25.2604650  17.6206110  38.2026530
  29.2587990  15.0403480  39.1388410  29.8617360  15.6123690  39.6136930
  28.5180980  15.6042920  38.9162310  32.4022590  15.4425040  34.4128690
  32.5973220  16.3408490  34.6796120  31.6152460  15.2112120  34.9061640
  19.1983880  31.1238210  34.8521310  18.6731500  31.5046240  34.1483270
  19.1228460  31.7488980  35.5731020  20.5874350  16.7885810  33.4505000
  21.1167110  16.0015610  33.3212950  21.2202670  17.4677000  33.6840530
  22.7812190  16.5260950  36.5050390  22.1514930  15.8248260  36.6720520
  22.2417330  17.2865080  36.2883550  25.7204140  33.1400180  49.1761000
  26.6471450  32.9044450  49.2196960  25.7054570  33.9672180  48.6947030
  22.9067750  15.8044930  48.9402880  22.6252020  16.3078530  48.1763700
  23.2887450  15.0066680  48.5745010  21.7976850  33.0720590  33.7270560
  22.5295670  32.7879870  33.1794450  22.0570520  32.8333870  34.6169940
  20.9591640  29.1885320  33.7316890  20.3300520  29.6570420  34.2802720
  21.0739470  28.3434540  34.1663080  29.5083210  15.2198510  49.5183350
  29.3948660  15.5393120  50.4134870  30.3252950  15.6211020  49.2220630
  28.4141360  23.2390980  19.8818090  28.3335410  22.3245590  19.6109800
  28.0005780  23.7358050  19.1757800  26.5459400  25.0170000  21.7627360
  25.7701500  24.5370440  22.0525930  27.1972330  24.3375650  21.5883520
  20.5625230  25.3289810  22.6403120  19.7310110  25.0738520  23.0399630
  21.1706210  25.4000580  23.3761040  30.5666830  29.4230190  20.5426490
  30.1048360  28.6517430  20.8713660  31.3792380  29.4496260  21.0478940
  20.5426490  29.3629900  22.8361140  20.8454530  28.4727640  22.6571360
  21.2870080  29.9200120  22.6083390  18.9717180  20.2891700  16.4245510
  18.0833880  20.6307670  16.3225390  19.2558370  20.0892020  15.5326340
  16.9350190  22.8897350  22.3085210  17.5066300  22.1219550  22.3088850
  16.9351730  23.1886110  21.3991820  26.7930140  31.7088200  20.1630480
  26.1741580  32.1645700  19.5924920  27.6481920  31.8639660  19.7620180
  25.9868390  27.6927190  21.7697520  25.9176670  26.7517130  21.6086650
  26.7488250  27.7828600  22.3420090  18.1775060  18.2981710  24.0954140
  17.9977900  17.4007460  24.3756900  17.7755140  18.8453580  24.7701090
  27.0173560  20.4997570  21.9966450  27.3938380  19.6269450  21.8840120
  26.9193070  20.8356270  21.1056890  21.1478570  18.8723200  17.4583890
  21.2545320  19.7726930  17.7652650  20.2370930  18.8241170  17.1678540
  30.7997680  17.9948010  18.9294790  31.6207300  17.5044580  18.9720270
  30.8331760  18.5845670  19.6826630  18.7961730  20.7942210  22.7036480
  19.4771840  21.0580580  23.3223880  18.4809780  19.9543080  23.0374490
  22.9886300  21.8409570  21.7909070  23.4964520  22.3390540  22.4314090
  23.5199540  21.0644770  21.6148430  35.0897230  20.0114760  25.4938420
  34.3849400  20.3996470  24.9753530  35.3555150  20.7065050  26.0959350
  21.2722400  16.4808130  26.0572490  21.2740840  16.9980520  25.2518390
  20.4426710  16.0038310  26.0342420  27.6593490  26.5927440  17.5562390
  27.0410760  27.0576890  16.9925110  28.1716740  27.2854920  17.9731900
  22.5225250  26.1203310  24.2345990  22.1894630  26.7472230  24.8767060
  22.6991930  26.6465190  23.4547660  31.0359160  19.9348390  21.7022330
  30.3314730  20.2233280  22.2825440  31.3971320  20.7448500  21.3421890
  20.9537730  18.1918090  24.0642940  21.2954540  19.0360140  23.7696810
  20.0153540  18.3401830  24.1808280  21.7344350  28.0884110  26.0495170
  22.3518350  28.7635190  25.7679620  20.8737470  28.4972090  25.9582670
  17.0276690  27.2783970  14.9302020  16.6504670  27.7671070  14.1986920
  17.2849760  27.9509250  15.5608550  32.6521940  29.5523520  23.9649810
  31.9685460  30.2222630  23.9566480  33.1916230  29.7504170  23.1994670
  34.1046080  19.3803180  22.0931540  33.1570990  19.4142160  22.2246970
  34.4296070  20.1942130  22.4780900  24.6365620  15.6800360  20.3887530
  24.9440600  15.1247250  19.6723030  23.7066320  15.8144820  20.2060520
  30.1880680  31.3967650  22.6794990  30.2007840  30.9929940  21.8117250
  29.6355900  32.1714940  22.5756420  31.4826100  28.1183870  17.7685160
  31.3722430  27.1758200  17.8934580  31.4794350  28.4799510  18.6547920
  29.5866120  26.2997490  24.0077600  30.0034910  26.0857600  23.1731060
  30.3105940  26.5570280  24.5786220  27.0246380  23.7449190  17.1247650
  26.0975660  23.6786570  17.3536120  27.1771200  24.6829320  17.0102890
  27.0115460  20.0166190  14.1214810  26.0719130  20.1780150  14.2067270
  27.3298720  20.7351870  13.5750800  33.5328220  24.6984710  24.0993840
  32.7046850  24.7677800  23.6243970  34.1278700  25.2839020  23.6309670
  31.0543670  25.3069490  17.6282900  30.4356090  24.9689040  16.9809200
  31.0368120  24.6629250  18.3362090  30.4970230  21.4854030  25.0448710
  30.0841410  22.3107740  25.2988700  29.7646180  20.8999070  24.8525070
  22.6303020  24.2713930  19.9067380  22.2260020  23.5591180  19.4113280
  22.7166140  23.9267170  20.7955420  23.0984720  27.9581490  22.0706590
  22.8013010  27.3526960  21.3914370  24.0484540  27.9958800  21.9595950
  21.3431640  21.0457140  23.6866420  21.8946230  21.1552480  22.9119670
  21.8575150  21.4194740  24.4021650  31.1870330  31.5313360  25.7329690
  30.7100890  32.3385550  25.5402300  30.5032120  30.8791690  25.8855900
  22.1903150  27.6963180  28.7214390  21.2931680  27.9203150  28.9687790
  22.2156020  27.8198120  27.7725790  29.2308370  24.5456300  14.6355650
  29.6701650  23.7078730  14.4893470  29.9436790  25.1785700  14.7219790
  21.0174370  24.5676500  27.2971760  20.8782140  25.4399300  27.6659160
  20.1355730  24.2249310  27.1519700  27.3403750  29.4852370  18.6036890
  27.7799660  30.2276700  18.1892280  27.2790640  29.7278940  19.5275850
  22.8154720  30.5098200  29.5056910  22.7870150  30.9141150  28.6385340
  22.6519690  29.5808560  29.3428510  32.8125510  15.7999110  12.9496690
  32.4998170  15.8925940  13.8495760  33.5737980  16.3780140  12.8994120
  19.3307650  23.1658910  17.4074030  19.2105250  23.8921000  16.7955300
  19.0208540  22.3961820  16.9301940  16.9693020  26.3374050  23.2142670
  17.0473440  26.4722820  22.2698390  17.5834700  25.6289940  23.4070790
  18.2140650  28.0374240  19.6248850  17.8068730  28.1788830  18.7702450
  19.1053660  27.7534400  19.4220060  34.1702790  28.4838150  27.9621090
  34.2965850  28.2450030  27.0438270  34.2124170  27.6522690  28.4343170
  28.0319530  32.1866150  26.5315900  28.5464200  32.0974160  27.3338330
  27.1888610  32.5325850  26.8243810  30.0073930  32.4721490  15.9599900
  29.8475070  32.1824430  16.8581730  29.8420640  31.6961620  15.4245130
  22.4862310  32.2520020  17.7371520  22.3104790  31.3355560  17.5239320
  21.6318050  32.6107310  17.9769320  29.7100060  29.9809050  14.5197900
  29.0165220  29.9786340  13.8600180  30.4522920  29.5568370  14.0892070
  29.2749990  31.6071760  18.5946390  29.7306940  30.8261140  18.9085010
  29.6142510  32.3178580  19.1387570  34.0226800  20.5370610  28.9270830
  33.4071070  21.0450280  28.3986290  33.7023220  19.6368940  28.8696770
  17.0252540  27.3788220  25.7537130  17.1883580  26.9093580  24.9356500
  17.4904990  26.8711780  26.4185970  21.7971310  16.5093980  20.7897700
  21.3539460  17.2903520  20.4582220  22.3556300  16.8323870  21.4968640
  26.0841120  19.3762500  26.3933020  25.6220490  19.5845520  27.2052960
  25.6819230  18.5621850  26.0903690  31.0845630  20.5971450  27.5229680
  30.2339220  20.2977200  27.8438750  30.9247420  20.8413460  26.6113500
  28.1795340  22.0973200  29.6228470  28.5048750  21.2636950  29.2830700
  28.9675670  22.6201720  29.7706800  24.9130130  16.1304680  15.6703530
  24.2884310  16.1264550  16.3956840  24.8260250  15.2635640  15.2739500
  23.8347210  17.0541310  22.6487300  24.1319540  17.9604140  22.5679320
  24.3832770  16.5660090  22.0346870  21.5885530  21.6327550  18.5178950
  21.3626450  21.4164720  19.4225570  20.8078060  22.0656010  18.1724920
  28.8183290  21.6390920  17.1169600  28.2192180  22.3626720  16.9333220
  29.3662900  21.5767700  16.3346050  24.0284740  22.5313130  29.1839220
  23.9328340  21.5907860  29.0339620  24.8716720  22.7528200  28.7887290
  27.4248160  20.2754460  19.1472880  27.8177730  20.5926660  18.3341570
  27.7865010  19.3966340  19.2617400  19.1595280  18.9426800  27.3373000
  18.7658670  19.7902010  27.5445780  18.4713680  18.3053170  27.5281640
  25.7340330  19.0261770  30.4069740  25.0438650  18.8333970  31.0415830
  26.4772630  19.3096410  30.9394040  16.4612330  16.8655260  21.3703080
  16.1725380  17.4358120  22.0828060  17.2058090  16.3859710  21.7334310
  16.6482560  20.8075380  12.5805800  16.5657230  21.7506140  12.7220790
  16.2965620  20.6650290  11.7018150  28.0103300  22.8660210  23.2423660
  27.2784420  23.3747020  23.5913760  27.6127640  22.0490190  22.9412440
  24.4480690  19.5414410  21.6476150  24.4516750  19.1004360  20.7980690
  25.3431810  19.8631740  21.7547970  20.2983070  19.4240900  20.6070360
  19.9583120  19.9016130  21.3637410  19.5360390  18.9706020  20.2471460
  24.5100840  20.5426490  14.6382910  24.6313660  20.5012970  15.5868730
  24.1249350  21.4050640  14.4829640  28.4729210  18.3193890  22.6546600
  28.4901950  18.7702540  23.4988450  28.2244790  17.4199530  22.8680040
  23.5222340  22.8527630  14.0366210  22.9539240  22.4045880  13.4102120
  24.2311340  23.2120410  13.5031360  31.8999960  15.7326070  28.4932980
  32.2245730  15.0015730  29.0190960  31.9356470  15.4139710  27.5913970
  18.5991520  26.7539650  27.9132940  18.2146310  26.1133320  28.5115900
  18.9103710  27.4575770  28.4827670  24.7488660  23.6016190  23.3941560
  25.1158790  23.1274760  24.1402900  24.5593720  24.4757760  23.7349900
  17.6129150  18.3459880  19.5235030  17.3276070  17.9815550  20.3613650
  17.5508010  17.6140340  18.9098170  22.5388030  22.6424830  25.7125770
  22.2345100  23.5216810  25.9376130  23.4934490  22.7024620  25.7483210
  21.0669820  26.8485820  16.3092620  20.2932080  26.3083440  16.1491340
  21.7964450  26.3292430  15.9710380  31.8257800  25.8451180  22.1019010
  32.5456920  26.3406470  21.7115120  31.6239620  25.1669070  21.4572880
  27.2867740  17.2389140  16.2448400  26.4732350  16.7402310  16.1693710
  27.0929690  18.0787390  15.8284750  27.2076600  25.9160240  27.9888010
  27.1413910  24.9955910  27.7345600  26.5781740  26.0135680  28.7032650
  30.0016130  21.6108790  14.5410560  30.8895750  21.9226020  14.3661900
  29.9721220  20.7381040  14.1491140  21.1107220  26.5166200  19.9471430
  21.6285890  25.7134460  19.8928320  20.6591240  26.4545340  20.7888260
  25.9976720  27.7832480  15.2198730  26.3392420  28.5274710  14.7242050
  25.1689430  28.0963600  15.5823560  18.5951760  23.4827570  26.8597130
  18.2366700  24.1481420  27.4470470  18.3006320  22.6511120  27.2309750
  21.7964880  23.9411810  29.7436680  21.4965020  24.0868990  28.8464500
  22.5676120  23.3817100  29.6510070  27.1393330  28.7380810  27.7391810
  27.1537870  27.8061770  27.5210720  26.4318430  28.8240570  28.3781580
  32.2730400  22.9220630  14.0090420  32.1894120  23.3534850  13.1586860
  32.9924590  23.3818980  14.4417240  33.3504540  25.3788150  27.0860390
  32.6252730  25.9716930  26.8889780  33.8780000  25.3711690  26.2873760
  33.3017650  29.7762890  16.7372550  32.6593810  29.1218510  17.0116270
  32.9148310  30.1817980  15.9613220  28.8804130  27.1048320  20.5844240
  29.2327950  26.5076450  19.9245610  27.9966460  26.7792550  20.7552490
  24.9667410  27.8646010  17.9914650  25.6538540  28.4115220  18.3722240
  24.1799830  28.4086740  18.0264260  17.1059810  23.4818830  13.4831730
  17.9754660  23.7643630  13.7667650  16.6150130  24.2954700  13.3680540
  24.2694620  24.8692040  17.6040010  24.7257400  25.6797290  17.8300200
  23.9182830  24.5515180  18.4358500  26.5727230  30.3798380  24.8332310
  27.2169450  30.5857760  25.5105730  26.9356670  29.6186780  24.3803160
  20.1706400  15.2129690  18.0762530  20.0421030  15.2047590  19.0247450
  19.3468420  15.5512780  17.7253540  27.8459310  28.3830730  23.5509760
  28.4881540  27.6823890  23.6641930  28.3708660  29.1629170  23.3706650
  31.6915030  28.6679350  13.2748900  31.4652610  27.9509790  13.8673540
  31.3011230  28.4191790  12.4370650  29.6196930  29.1825630  26.7545820
  29.9553170  29.7692320  27.4323740  28.6997270  29.0518340  26.9843610
  17.4731060  32.6946210  14.0493360  17.8328700  33.2935550  13.3950630
  17.3323400  33.2406100  14.8228390  17.1700330  16.9720810  27.5369230
  16.4558850  17.1717730  28.1421840  17.5895370  16.1960380  27.9084030
  31.2731280  26.5851290  14.9363060  30.9852980  27.0463980  15.7240940
  32.0683450  26.1249060  15.2047280  17.4572920  30.9601070  28.5235760
  17.5664040  30.0195810  28.3831150  16.8053480  31.2255820  27.8749490
  25.4485510  29.2316960  29.9233880  25.1282380  28.5126200  30.4679570
  24.7743870  29.9072030  29.9969940  23.4899680  30.0777410  14.8667030
  23.4809780  30.8107100  14.2511540  22.5698040  29.8308990  14.9593990
  19.0906320  25.2992300  15.6113790  18.4834270  26.0391200  15.6209090
  19.5655670  25.3891660  14.7851990  28.6639110  19.4643120  25.2870680
  29.0319930  18.6438330  25.6150250  27.8037310  19.5245010  25.7026330
  32.0301140  18.4200060  16.0958240  31.4014300  18.5245730  15.3816470
  31.5353060  18.6396840  16.8852120  26.4759280  30.1405650  13.5292220
  26.5771260  29.9369640  12.5994200  25.5761020  29.8863930  13.7340000
  23.9985170  20.6986010  17.5116120  23.2901320  21.1672350  17.9529730
  24.2829650  20.0408020  18.1461310  25.6241100  22.1182710  25.5108650
  26.1226350  22.5928530  26.1760500  25.7664050  21.1946230  25.7178680
  28.0300600  17.4236670  18.9511910  27.9068380  17.4422800  18.0021420
  28.9785160  17.4715610  19.0710310  25.1177390  32.6591970  18.2239890
  25.3718890  32.6213360  17.3019260  24.1689870  32.5325300  18.2168140
  22.2020190  19.0071090  14.8866830  23.0510720  19.4441240  14.8207020
  21.8351460  19.3191350  15.7138890  32.8307960  18.3350670  26.3537040
  32.3281560  19.0756070  26.6930850  33.6464620  18.7234670  26.0373830
  31.1229970  23.5783850  19.7998400  30.1820110  23.5934080  19.9746090
  31.4374040  22.7919810  20.2458700  21.1011610  25.2603450  13.3602360
  21.8674880  25.1484810  13.9227790  21.1786300  24.5641420  12.7079130
  19.7958370  22.6928520  14.0435250  19.8761960  21.7456030  14.1552650
  20.6878120  23.0235400  14.1495910  33.1255550  30.7492700  21.4752660
  33.2502970  31.5723870  21.9476470  33.9921110  30.5383430  21.1276810
  20.5973080  32.8423910  21.1469790  21.3335560  32.2939370  21.4178360
  20.9814000  33.7079920  21.0075780  17.4818560  28.9097480  17.0211300
  16.5558340  29.1518620  17.0116710  17.9474990  29.7371740  16.8996050
  19.6031360  32.0269980  30.3355370  20.4044090  32.3482030  30.7490770
  19.0883180  31.6665560  31.0575280  23.7075390  32.0154220  12.9695360
  24.5004000  32.3043050  12.5177150  23.1879740  31.5846390  12.2907840
  28.4395990  28.1349850  30.2830780  27.8334150  28.1581450  29.5426530
  28.1350100  27.4032890  30.8198030  32.7605560  31.2424350  14.3932100
  32.4747070  30.8289490  13.5786280  32.5625110  32.1712060  14.2732620
  17.3229170  24.5143440  29.2791420  17.8268190  23.9350720  29.8507650
  16.5836590  24.7983670  29.8167790  24.2252790  27.2357630  12.8337710
  24.1203430  26.6209980  13.5599090  24.0577010  26.7123520  12.0500720
  24.3767110  25.9214430  28.8126940  23.6112780  26.4899430  28.7281610
  24.5583070  25.6290640  27.9195170  27.4655520  26.2977660  13.4379700
  26.9165620  26.7446960  14.0822440  28.0874780  25.7926910  13.9617370
  31.5190460  27.6519760  29.3701960  32.2599930  27.9895520  28.8669420
  30.7563140  27.8211820  28.8171730  19.3552250  22.6573030  30.1741490
  19.3957590  22.3586900  31.0826720  20.2097750  23.0580640  30.0149010
  23.1330640  25.2568580  15.3345000  23.5547060  25.0908450  16.1776390
  23.2581480  24.4468810  14.8400140  21.2958060  21.2365130  28.1415980
  20.7654520  20.7456080  27.5139320  21.9646130  21.6649330  27.6073910
  25.6458280  24.2806190  12.5822100  26.1663940  23.5655210  12.2163250
  26.2926680  24.9192060  12.8822610  30.6658290  23.0430750  29.9096320
  31.2479060  22.2883070  29.8216800  30.8420060  23.5738190  29.1327800
  21.7830360  18.2027500  28.2213270  21.6887230  17.5848250  27.4964140
  21.2027750  18.9293790  27.9943180  24.5491800  16.7600740  25.2540660
  24.1009100  16.7825000  24.4086210  23.9157000  16.3619760  25.8510960
  24.9551350  25.6555070  25.8753100  25.3739460  26.4987800  25.7029340
  24.0359980  25.7927110  25.6459880  27.2915250  23.3871250  27.2590940
  27.4111460  22.7912390  27.9985780  28.1509250  23.4240940  26.8392240
  29.6303150  23.9408440  25.8353450  29.1038370  24.4651060  25.2318590
  29.9734490  24.5735830  26.4663180  22.0289540  21.3301810  12.2803160
  21.8278600  20.4669170  12.6416500  21.8581590  21.2435170  11.3424760
  22.8058770  31.9608080  26.9910830  22.2679860  32.6854140  26.6719530
  23.0592730  31.4838420  26.2008170  24.0584020  19.9292600  28.5166760
  24.6483710  19.6208450  29.2044580  23.2404260  19.4572350  28.6726660
  28.8777450  19.5458410  28.7499780  28.1892970  18.8839950  28.6849770
  29.5983470  19.0996680  29.1948240  29.5077850  16.1410040  14.8090040
  29.7880140  15.2977940  15.1649460  28.7343580  16.3733150  15.3228790
  20.8272340  18.4302430  12.2681040  21.1298240  18.4369860  11.3600190
  21.5666930  18.0800290  12.7648700  25.6620980  33.1959290  27.2497480
  25.5879680  34.0994430  27.5569850  24.7599820  32.8771190  27.2219550
  24.0457270  17.3737050  13.2537240  23.6979270  16.6961040  12.6739690
  24.2470040  16.9126560  14.0680630  26.2106310  32.3617800  14.8723840
  27.1057100  32.7002770  14.8942600  26.2423940  31.6397210  14.2448120
  19.8502470  27.7344850  13.1010840  20.2877340  28.2774520  13.7568420
  20.3350200  26.9091800  13.1107180  17.0648270  30.5233880  20.5531100
  17.3951280  29.6554940  20.3209740  17.4939270  30.7292400  21.3836060
  21.6610190  28.8542890  18.2133070  21.3605730  28.7307860  19.1136980
  21.5547680  27.9951480  17.8048800  17.5538480  31.3904470  23.2912730
  17.1169470  31.5705270  24.1236880  18.1216160  32.1479090  23.1494450
  33.1900660  30.8921470  27.5790040  32.5902650  30.9514030  26.8353960
  33.3194560  29.9526450  27.7086890  34.4302110  28.6339290  12.9159750
  33.5995070  28.7015940  13.3866980  34.6073940  29.5243410  12.6126610
  33.8858570  25.3786770  15.4193950  34.6477480  25.9483420  15.5253640
  33.9012940  24.8113970  16.1902260  17.3862910  23.9024700  19.6501610
  16.7311750  23.6336340  19.0061310  18.2240860  23.7929180  19.2003590
  34.8918540  26.2336870  20.2635880  35.2627370  25.4504190  19.8571850
  35.5320470  26.9225970  20.0853180  31.8752300  27.6173450  25.6766200
  31.0612140  28.0470610  25.9391990  32.2826500  28.2291860  25.0635250
  33.9377740  25.6721140  12.5766470  34.2126580  26.5800020  12.4485690
  33.7488480  25.6083670  13.5128460  30.3353350  18.6965990  13.8720100
  30.7538230  18.5096970  13.0316760  30.0289410  17.8445040  14.1823030
  33.8343080  23.6090130  17.5695900  33.4586680  22.8418060  17.1377190
  33.1046200  23.9912830  18.0570830  18.4238840  24.2877270  24.1904950
  18.7911880  24.2004670  25.0700970  17.8549660  23.5243820  24.0911810
  33.2242700  22.7561650  27.2035420  32.9928790  22.5274400  26.3033370
  33.4847250  23.6761200  27.1580310  17.9754840  21.1986360  28.0963370
  17.0810890  21.1653120  28.4357080  18.5152390  21.3973150  28.8614620
  31.6630770  17.9818080  29.9815120  32.5400950  17.9901480  30.3649120
  31.6751610  17.2448920  29.3707470  16.6000990  21.1123630  15.5926940
  15.6965070  21.3753830  15.4178600  17.0841610  21.3834800  14.8126900
  33.1094040  21.8347620  20.8703140  33.6331520  21.3410270  20.2393310
  33.6953460  21.9697980  21.6150710  33.2883760  21.9187490  24.3922690
  32.3386470  21.8851030  24.5067680  33.4696770  22.8287600  24.1572460
  19.1428200  20.1689170  13.5021320  19.8519900  19.7472390  13.0168600
  18.4268140  20.2364400  12.8704670  18.7902360  16.2228500  12.5423970
  19.5130490  16.7637440  12.8605190  19.0626880  15.9491920  11.6665510
  32.5994010  21.0920970  16.8095550  33.0953130  20.8591840  17.5944430
  32.4010080  20.2532810  16.3933190  18.4794550  15.4734690  22.4446590
  19.1270740  14.9232070  22.0041750  18.8996390  15.7277840  23.2662400
  34.0281170  19.7281920  19.3433230  33.9180450  19.5737960  20.2815500
  34.7888760  19.2002860  19.1008640  32.3746890  15.6676050  25.8016230
  33.0119110  16.2810190  26.1675420  32.5221780  15.7036710  24.8565460
  34.9171440  17.5589840  12.5839370  35.8420750  17.4271020  12.3757660
  34.8947230  17.6382660  13.5375820  34.9909930  18.3300500  15.2096080
  34.1961430  18.2645620  15.7388990  35.1953210  19.2651140  15.1981430
  31.9328350  32.3692050  19.2034470  32.5287420  32.0476620  18.5268890
  32.1906500  31.8963870  19.9947740  18.2326550  15.6290360  25.1871910
  17.8841370  16.0854180  25.9530090  17.9014250  14.7347490  25.2694340
  19.8390920  28.8009960  29.3525100  19.7960550  28.4302870  30.2339560
  19.9701930  29.7387530  29.4926920  23.5396950  30.3569550  24.9534820
  23.2988310  30.6244110  24.0665340  24.4799590  30.5275280  25.0085680
  25.7451370  16.8202240  28.7091330  25.6840260  17.4124070  29.4586740
  26.6851750  16.7128200  28.5641590  28.3825930  16.4772300  28.3483620
  28.9966340  16.7951590  27.6864700  28.9275490  15.9920890  28.9679480
  18.9047190  15.1566560  28.4622680  19.4530180  14.9754610  27.6988790
  18.9702500  14.3660670  28.9978990  19.6778950  31.7472210  26.4722880
  19.0839270  31.6156910  27.2112920  19.6702790  30.9110350  26.0064980
  29.1233970  15.0404440  24.6752910  28.2493810  15.3739550  24.4725840
  29.0144720  14.5677620  25.5004780  30.0305950  17.2475310  26.0594630
  29.7019310  16.4327070  25.6796360  30.9788250  17.2045120  25.9360320
  32.4840560  33.0187350  23.0332200  32.0243530  33.7703160  22.6590220
  31.8553020  32.2993820  22.9747000  19.3091180  29.1130590  25.4230920
  18.5825240  28.4935880  25.3556870  19.3700330  29.5071200  24.5529000
  22.9136280  31.3275590  22.2080330  23.4301300  30.7162950  21.6828590
  23.5633660  31.8304370  22.6991340  25.6531780  32.2184080  23.0349310
  25.9409590  31.9638380  22.1582320  26.1655000  31.6661440  23.6254880
  26.8708790  15.9574280  23.6145820  26.0880580  16.4319780  23.8942580
  26.5771720  15.0529110  23.5059000  31.4229860  16.6597380  21.6594910
  31.8637950  16.6042480  20.8116510  31.1537450  17.5755390  21.7305090
  33.2868430  16.2912620  19.6703730  33.2256830  15.3473840  19.5234750
  34.0660460  16.3992710  20.2157190  17.5921180  32.4304980  18.6327680
  17.4243220  31.7975660  19.3309570  16.7255690  32.6364380  18.2821870
  18.2149200  16.2621760  16.1359540  18.9728560  16.3750640  15.5623570
  17.7526370  17.0990960  16.0902970  24.7563010  18.3761030  19.1261850
  23.9437520  18.0017920  18.7857730  25.2604650  17.6206110  19.4283040
  29.2587990  15.0403480  20.3644920  29.8617360  15.6123690  20.8393440
  28.5180980  15.6042920  20.1418820  32.4022590  15.4425040  15.6385200
  32.5973220  16.3408490  15.9052630  31.6152460  15.2112120  16.1318150
  19.1983880  31.1238210  16.0777820  18.6731500  31.5046240  15.3739780
  19.1228460  31.7488980  16.7987530  20.5874350  16.7885810  14.6761510
  21.1167110  16.0015610  14.5469460  21.2202670  17.4677000  14.9097040
  22.7812190  16.5260950  17.7306900  22.1514930  15.8248260  17.8977030
  22.2417330  17.2865080  17.5140060  25.7204140  33.1400180  30.4017510
  26.6471450  32.9044450  30.4453470  25.7054570  33.9672180  29.9203540
  33.9549200  32.6825750  17.3991760  34.1301390  31.9963490  16.7552680
  33.2570770  33.2072800  17.0068430  22.9067750  15.8044930  30.1659390
  22.6252020  16.3078530  29.4020210  23.2887450  15.0066680  29.8001520
  21.7976850  33.0720590  14.9527070  22.5295670  32.7879870  14.4050960
  22.0570520  32.8333870  15.8426450  20.9591640  29.1885320  14.9573400
  20.3300520  29.6570420  15.5059230  21.0739470  28.3434540  15.3919590
  29.5083210  15.2198510  30.7439860  29.3948660  15.5393120  31.6391380
  30.3252950  15.6211020  30.4477140  26.5459400  25.0170000   2.9883870
  25.7701500  24.5370440   3.2782440  27.1972330  24.3375650   2.8140030
  20.5625230  25.3289810   3.8659630  19.7310110  25.0738520   4.2656140
  21.1706210  25.4000580   4.6017550  30.5666830  29.4230190   1.7683000
  30.1048360  28.6517430   2.0970170  31.3792380  29.4496260   2.2735450
  20.5426490  29.3629900   4.0617650  20.8454530  28.4727640   3.8827870
  21.2870080  29.9200120   3.8339900  16.9350190  22.8897350   3.5341720
  17.5066300  22.1219550   3.5345360  16.9351730  23.1886110   2.6248330
  25.9868390  27.6927190   2.9954030  25.9176670  26.7517130   2.8343160
  26.7488250  27.7828600   3.5676600  18.1775060  18.2981710   5.3210650
  17.9977900  17.4007460   5.6013410  17.7755140  18.8453580   5.9957600
  27.0173560  20.4997570   3.2222960  27.3938380  19.6269450   3.1096630
  26.9193070  20.8356270   2.3313400  18.7961730  20.7942210   3.9292990
  19.4771840  21.0580580   4.5480390  18.4809780  19.9543080   4.2631000
  22.9886300  21.8409570   3.0165580  23.4964520  22.3390540   3.6570600
  23.5199540  21.0644770   2.8404940  35.0897230  20.0114760   6.7194930
  34.3849400  20.3996470   6.2010040  35.3555150  20.7065050   7.3215860
  21.2722400  16.4808130   7.2829000  21.2740840  16.9980520   6.4774900
  20.4426710  16.0038310   7.2598930  22.5225250  26.1203310   5.4602500
  22.1894630  26.7472230   6.1023570  22.6991930  26.6465190   4.6804170
  31.0359160  19.9348390   2.9278840  30.3314730  20.2233280   3.5081950
  31.3971320  20.7448500   2.5678400  20.9537730  18.1918090   5.2899450
  21.2954540  19.0360140   4.9953320  20.0153540  18.3401830   5.4064790
  21.7344350  28.0884110   7.2751680  22.3518350  28.7635190   6.9936130
  20.8737470  28.4972090   7.1839180  32.6521940  29.5523520   5.1906320
  31.9685460  30.2222630   5.1822990  33.1916230  29.7504170   4.4251180
  34.1046080  19.3803180   3.3188050  33.1570990  19.4142160   3.4503480
  34.4296070  20.1942130   3.7037410  30.1880680  31.3967650   3.9051500
  30.2007840  30.9929940   3.0373760  29.6355900  32.1714940   3.8012930
  29.5866120  26.2997490   5.2334110  30.0034910  26.0857600   4.3987570
  30.3105940  26.5570280   5.8042730  33.5328220  24.6984710   5.3250350
  32.7046850  24.7677800   4.8500480  34.1278700  25.2839020   4.8566180
  30.4970230  21.4854030   6.2705220  30.0841410  22.3107740   6.5245210
  29.7646180  20.8999070   6.0781580  23.0984720  27.9581490   3.2963100
  22.8013010  27.3526960   2.6170880  24.0484540  27.9958800   3.1852460
  21.3431640  21.0457140   4.9122930  21.8946230  21.1552480   4.1376180
  21.8575150  21.4194740   5.6278160  31.1870330  31.5313360   6.9586200
  30.7100890  32.3385550   6.7658810  30.5032120  30.8791690   7.1112410
  22.1903150  27.6963180   9.9470900  21.2931680  27.9203150  10.1944300
  22.2156020  27.8198120   8.9982300  21.0174370  24.5676500   8.5228270
  20.8782140  25.4399300   8.8915670  20.1355730  24.2249310   8.3776210
  22.8154720  30.5098200  10.7313420  22.7870150  30.9141150   9.8641850
  22.6519690  29.5808560  10.5685020  34.7669540  31.2925300  12.0277590
  35.2429260  31.7708190  12.7066670  35.3876700  31.2242790  11.3023090
  16.9693020  26.3374050   4.4399180  17.0473440  26.4722820   3.4954900
  17.5834700  25.6289940   4.6327300  34.1702790  28.4838150   9.1877600
  34.2965850  28.2450030   8.2694780  34.2124170  27.6522690   9.6599680
  28.0319530  32.1866150   7.7572410  28.5464200  32.0974160   8.5594840
  27.1888610  32.5325850   8.0500320  34.0226800  20.5370610  10.1527340
  33.4071070  21.0450280   9.6242800  33.7023220  19.6368940  10.0953280
  17.0252540  27.3788220   6.9793640  17.1883580  26.9093580   6.1613010
  17.4904990  26.8711780   7.6442480  21.7971310  16.5093980   2.0154210
  21.3539460  17.2903520   1.6838730  22.3556300  16.8323870   2.7225150
  26.0841120  19.3762500   7.6189530  25.6220490  19.5845520   8.4309470
  25.6819230  18.5621850   7.3160200  31.0845630  20.5971450   8.7486190
  30.2339220  20.2977200   9.0695260  30.9247420  20.8413460   7.8370010
  28.1795340  22.0973200  10.8484980  28.5048750  21.2636950  10.5087210
  28.9675670  22.6201720  10.9963310  23.8347210  17.0541310   3.8743810
  24.1319540  17.9604140   3.7935830  24.3832770  16.5660090   3.2603380
  24.0284740  22.5313130  10.4095730  23.9328340  21.5907860  10.2596130
  24.8716720  22.7528200  10.0143800  19.1595280  18.9426800   8.5629510
  18.7658670  19.7902010   8.7702290  18.4713680  18.3053170   8.7538150
  25.7340330  19.0261770  11.6326250  25.0438650  18.8333970  12.2672340
  26.4772630  19.3096410  12.1650550  16.4612330  16.8655260   2.5959590
  16.1725380  17.4358120   3.3084570  17.2058090  16.3859710   2.9590820
  28.0103300  22.8660210   4.4680170  27.2784420  23.3747020   4.8170270
  27.6127640  22.0490190   4.1668950  24.4480690  19.5414410   2.8732660
  24.4516750  19.1004360   2.0237200  25.3431810  19.8631740   2.9804480
  28.4729210  18.3193890   3.8803110  28.4901950  18.7702540   4.7244960
  28.2244790  17.4199530   4.0936550  31.8999960  15.7326070   9.7189490
  32.2245730  15.0015730  10.2447470  31.9356470  15.4139710   8.8170480
  18.5991520  26.7539650   9.1389450  18.2146310  26.1133320   9.7372410
  18.9103710  27.4575770   9.7084180  24.7488660  23.6016190   4.6198070
  25.1158790  23.1274760   5.3659410  24.5593720  24.4757760   4.9606410
  22.5388030  22.6424830   6.9382280  22.2345100  23.5216810   7.1632640
  23.4934490  22.7024620   6.9739720  31.8257800  25.8451180   3.3275520
  32.5456920  26.3406470   2.9371630  31.6239620  25.1669070   2.6829390
  27.2076600  25.9160240   9.2144520  27.1413910  24.9955910   8.9602110
  26.5781740  26.0135680   9.9289160  18.5951760  23.4827570   8.0853640
  18.2366700  24.1481420   8.6726980  18.3006320  22.6511120   8.4566260
  21.7964880  23.9411810  10.9693190  21.4965020  24.0868990  10.0721010
  22.5676120  23.3817100  10.8766580  27.1393330  28.7380810   8.9648320
  27.1537870  27.8061770   8.7467230  26.4318430  28.8240570   9.6038090
  33.3504540  25.3788150   8.3116900  32.6252730  25.9716930   8.1146290
  33.8780000  25.3711690   7.5130270  26.5727230  30.3798380   6.0588820
  27.2169450  30.5857760   6.7362240  26.9356670  29.6186780   5.6059670
  27.8459310  28.3830730   4.7766270  28.4881540  27.6823890   4.8898440
  28.3708660  29.1629170   4.5963160  29.6196930  29.1825630   7.9802330
  29.9553170  29.7692320   8.6580250  28.6997270  29.0518340   8.2100120
  17.1700330  16.9720810   8.7625740  16.4558850  17.1717730   9.3678350
  17.5895370  16.1960380   9.1340540  17.4572920  30.9601070   9.7492270
  17.5664040  30.0195810   9.6087660  16.8053480  31.2255820   9.1006000
  25.4485510  29.2316960  11.1490390  25.1282380  28.5126200  11.6936080
  24.7743870  29.9072030  11.2226450  28.6639110  19.4643120   6.5127190
  29.0319930  18.6438330   6.8406760  27.8037310  19.5245010   6.9282840
  25.6241100  22.1182710   6.7365160  26.1226350  22.5928530   7.4017010
  25.7664050  21.1946230   6.9435190  32.8307960  18.3350670   7.5793550
  32.3281560  19.0756070   7.9187360  33.6464620  18.7234670   7.2630340
  33.1255550  30.7492700   2.7009170  33.2502970  31.5723870   3.1732980
  33.9921110  30.5383430   2.3533320  20.5973080  32.8423910   2.3726300
  21.3335560  32.2939370   2.6434870  20.9814000  33.7079920   2.2332290
  19.6031360  32.0269980  11.5611880  20.4044090  32.3482030  11.9747280
  19.0883180  31.6665560  12.2831790  28.4395990  28.1349850  11.5087290
  27.8334150  28.1581450  10.7683040  28.1350100  27.4032890  12.0454540
  29.8696360  31.8630140  10.1196700  30.8218110  31.7788160  10.0696940
  29.7224580  32.5271850  10.7930490  17.3229170  24.5143440  10.5047930
  17.8268190  23.9350720  11.0764160  16.5836590  24.7983670  11.0424300
  24.3767110  25.9214430  10.0383450  23.6112780  26.4899430   9.9538120
  24.5583070  25.6290640   9.1451680  31.5190460  27.6519760  10.5958470
  32.2599930  27.9895520  10.0925930  30.7563140  27.8211820  10.0428240
  19.3552250  22.6573030  11.3998000  19.3957590  22.3586900  12.3083230
  20.2097750  23.0580640  11.2405520  21.2958060  21.2365130   9.3672490
  20.7654520  20.7456080   8.7395830  21.9646130  21.6649330   8.8330420
  30.1936120  25.7034590   9.1313680  30.6077140  25.8579670   9.9804100
  29.2587120  25.8289810   9.2939460  30.6658290  23.0430750  11.1352830
  31.2479060  22.2883070  11.0473310  30.8420060  23.5738190  10.3584310
  21.7830360  18.2027500   9.4469780  21.6887230  17.5848250   8.7220650
  21.2027750  18.9293790   9.2199690  24.5491800  16.7600740   6.4797170
  24.1009100  16.7825000   5.6342720  23.9157000  16.3619760   7.0767470
  24.9551350  25.6555070   7.1009610  25.3739460  26.4987800   6.9285850
  24.0359980  25.7927110   6.8716390  27.2915250  23.3871250   8.4847450
  27.4111460  22.7912390   9.2242290  28.1509250  23.4240940   8.0648750
  29.6303150  23.9408440   7.0609960  29.1038370  24.4651060   6.4575100
  29.9734490  24.5735830   7.6919690  22.8058770  31.9608080   8.2167340
  22.2679860  32.6854140   7.8976040  23.0592730  31.4838420   7.4264680
  24.0584020  19.9292600   9.7423270  24.6483710  19.6208450  10.4301090
  23.2404260  19.4572350   9.8983170  28.8777450  19.5458410   9.9756290
  28.1892970  18.8839950   9.9106280  29.5983470  19.0996680  10.4204750
  25.6620980  33.1959290   8.4753990  25.5879680  34.0994430   8.7826360
  24.7599820  32.8771190   8.4476060  17.5538480  31.3904470   4.5169240
  17.1169470  31.5705270   5.3493390  18.1216160  32.1479090   4.3750960
  33.1900660  30.8921470   8.8046550  32.5902650  30.9514030   8.0610470
  33.3194560  29.9526450   8.9343400  31.8752300  27.6173450   6.9022710
  31.0612140  28.0470610   7.1648500  32.2826500  28.2291860   6.2891760
  18.4238840  24.2877270   5.4161460  18.7911880  24.2004670   6.2957480
  17.8549660  23.5243820   5.3168320  33.2242700  22.7561650   8.4291930
  32.9928790  22.5274400   7.5289880  33.4847250  23.6761200   8.3836820
  17.9754840  21.1986360   9.3219880  17.0810890  21.1653120   9.6613590
  18.5152390  21.3973150  10.0871130  31.6630770  17.9818080  11.2071630
  32.5400950  17.9901480  11.5905630  31.6751610  17.2448920  10.5963980
  33.2883760  21.9187490   5.6179200  32.3386470  21.8851030   5.7324190
  33.4696770  22.8287600   5.3828970  18.4794550  15.4734690   3.6703100
  19.1270740  14.9232070   3.2298260  18.8996390  15.7277840   4.4918910
  32.3746890  15.6676050   7.0272740  33.0119110  16.2810190   7.3931930
  32.5221780  15.7036710   6.0821970  18.2326550  15.6290360   6.4128420
  17.8841370  16.0854180   7.1786600  17.9014250  14.7347490   6.4950850
  19.8390920  28.8009960  10.5781610  19.7960550  28.4302870  11.4596070
  19.9701930  29.7387530  10.7183430  23.5396950  30.3569550   6.1791330
  23.2988310  30.6244110   5.2921850  24.4799590  30.5275280   6.2342190
  25.7451370  16.8202240   9.9347840  25.6840260  17.4124070  10.6843250
  26.6851750  16.7128200   9.7898100  28.3825930  16.4772300   9.5740130
  28.9966340  16.7951590   8.9121210  28.9275490  15.9920890  10.1935990
  34.8001110  32.3763930   6.9801970  34.3059390  32.7732800   6.2629100
  34.1914400  31.7513140   7.3739250  18.9047190  15.1566560   9.6879190
  19.4530180  14.9754610   8.9245300  18.9702500  14.3660670  10.2235500
  19.6778950  31.7472210   7.6979390  19.0839270  31.6156910   8.4369430
  19.6702790  30.9110350   7.2321490  29.1233970  15.0404440   5.9009420
  28.2493810  15.3739550   5.6982350  29.0144720  14.5677620   6.7261290
  30.0305950  17.2475310   7.2851140  29.7019310  16.4327070   6.9052870
  30.9788250  17.2045120   7.1616830  32.4840560  33.0187350   4.2588710
  32.0243530  33.7703160   3.8846730  31.8553020  32.2993820   4.2003510
  19.3091180  29.1130590   6.6487430  18.5825240  28.4935880   6.5813380
  19.3700330  29.5071200   5.7785510  22.9136280  31.3275590   3.4336840
  23.4301300  30.7162950   2.9085100  23.5633660  31.8304370   3.9247850
  25.6531780  32.2184080   4.2605820  25.9409590  31.9638380   3.3838830
  26.1655000  31.6661440   4.8511390  26.8708790  15.9574280   4.8402330
  26.0880580  16.4319780   5.1199090  26.5771720  15.0529110   4.7315510
  31.4229860  16.6597380   2.8851420  31.8637950  16.6042480   2.0373020
  31.1537450  17.5755390   2.9561600  25.7204140  33.1400180  11.6274020
  26.6471450  32.9044450  11.6709980  25.7054570  33.9672180  11.1460050
  22.9067750  15.8044930  11.3915900  22.6252020  16.3078530  10.6276720
  23.2887450  15.0066680  11.0258030  29.5083210  15.2198510  11.9696370
  29.3948660  15.5393120  12.8647890  30.3252950  15.6211020  11.6733650
  32.2881700  32.3670040  11.4515060  33.0807020  31.8719270  11.2441020
  32.5814850  33.0460180  12.0590670  28.4141360   4.4647490  76.2048560
  28.3335410   3.5502100  75.9340270  28.0005780   4.9614560  75.4988270
  26.5459400   6.2426510  78.0857830  25.7701500   5.7626950  78.3756400
  27.1972330   5.5632160  77.9113990  30.5666830  10.6486700  76.8656960
  30.1048360   9.8773940  77.1944130  31.3792380  10.6752770  77.3709410
  16.9350190   4.1153860  78.6315680  17.5066300   3.3476060  78.6319320
  16.9351730   4.4142620  77.7222290  26.7930140  12.9344710  76.4860950
  26.1741580  13.3902210  75.9155390  27.6481920  13.0896170  76.0850650
  25.9868390   8.9183700  78.0927990  25.9176670   7.9773640  77.9317120
  26.7488250   9.0085110  78.6650560  22.9886300   3.0666080  78.1139540
  23.4964520   3.5647050  78.7544560  23.5199540   2.2901280  77.9378900
  27.6593490   7.8183950  73.8792860  27.0410760   8.2833400  73.3155580
  28.1716740   8.5111430  74.2962370  17.0276690   8.5040480  71.2532490
  16.6504670   8.9927580  70.5217390  17.2849760   9.1765760  71.8839020
  31.4826100   9.3440380  74.0915630  31.3722430   8.4014710  74.2165050
  31.4794350   9.7056020  74.9778390  27.0246380   4.9705700  73.4478120
  26.0975660   4.9043080  73.6766590  27.1771200   5.9085830  73.3333360
  31.0543670   6.5326000  73.9513370  30.4356090   6.1945550  73.3039670
  31.0368120   5.8885760  74.6592560  22.6303020   5.4970440  76.2297850
  22.2260020   4.7847690  75.7343750  22.7166140   5.1523680  77.1185890
  23.0984720   9.1838000  78.3937060  22.8013010   8.5783470  77.7144840
  24.0484540   9.2215310  78.2826420  29.2308370   5.7712810  70.9586120
  29.6701650   4.9335240  70.8123940  29.9436790   6.4042210  71.0450260
  27.3403750  10.7108880  74.9267360  27.7799660  11.4533210  74.5122750
  27.2790640  10.9535450  75.8506320  19.3307650   4.3915420  73.7304500
  19.2105250   5.1177510  73.1185770  19.0208540   3.6218330  73.2532410
  18.2140650   9.2630750  75.9479320  17.8068730   9.4045340  75.0932920
  19.1053660   8.9790910  75.7450530  30.0073930  13.6978000  72.2830370
  29.8475070  13.4080940  73.1812200  29.8420640  12.9218130  71.7475600
  22.4862310  13.4776530  74.0601990  22.3104790  12.5612070  73.8469790
  21.6318050  13.8363820  74.2999790  29.7100060  11.2065560  70.8428370
  29.0165220  11.2042850  70.1830650  30.4522920  10.7824880  70.4122540
  29.2749990  12.8328270  74.9176860  29.7306940  12.0517650  75.2315480
  29.6142510  13.5435090  75.4618040  21.5885530   2.8584060  74.8409420
  21.3626450   2.6421230  75.7456040  20.8078060   3.2912520  74.4955390
  28.8183290   2.8647430  73.4400070  28.2192180   3.5883230  73.2563690
  29.3662900   2.8024210  72.6576520  16.6482560   2.0331890  68.9036270
  16.5657230   2.9762650  69.0451260  16.2965620   1.8906800  68.0248620
  24.5100840   1.7683000  70.9613380  24.6313660   1.7269480  71.9099200
  24.1249350   2.6307150  70.8060110  23.5222340   4.0784140  70.3596680
  22.9539240   3.6302390  69.7332590  24.2311340   4.4376920  69.8261830
  21.0669820   8.0742330  72.6323090  20.2932080   7.5339950  72.4721810
  21.7964450   7.5548940  72.2940850  31.8257800   7.0707690  78.4249480
  32.5456920   7.5662980  78.0345590  31.6239620   6.3925580  77.7803350
  30.0016130   2.8365300  70.8641030  30.8895750   3.1482530  70.6892370
  29.9721220   1.9637550  70.4721610  21.1107220   7.7422710  76.2701900
  21.6285890   6.9390970  76.2158790  20.6591240   7.6801850  77.1118730
  25.9976720   9.0088990  71.5429200  26.3392420   9.7531220  71.0472520
  25.1689430   9.3220110  71.9054030  32.2730400   4.1477140  70.3320890
  32.1894120   4.5791360  69.4817330  32.9924590   4.6075490  70.7647710
  33.3017650  11.0019400  73.0603020  32.6593810  10.3475020  73.3346740
  32.9148310  11.4074490  72.2843690  28.8804130   8.3304830  76.9074710
  29.2327950   7.7332960  76.2476080  27.9966460   8.0049060  77.0782960
  24.9667410   9.0902520  74.3145120  25.6538540   9.6371730  74.6952710
  24.1799830   9.6343250  74.3494730  17.1059810   4.7075340  69.8062200
  17.9754660   4.9900140  70.0898120  16.6150130   5.5211210  69.6911010
  24.2694620   6.0948550  73.9270480  24.7257400   6.9053800  74.1530670
  23.9182830   5.7771690  74.7588970  31.6915030   9.8935860  69.5979370
  31.4652610   9.1766300  70.1904010  31.3011230   9.6448300  68.7601120
  17.4731060  13.9202720  70.3723830  17.8328700  14.5192060  69.7181100
  17.3323400  14.4662610  71.1458860  31.2731280   7.8107800  71.2593530
  30.9852980   8.2720490  72.0471410  32.0683450   7.3505570  71.5277750
  23.4899680  11.3033920  71.1897500  23.4809780  12.0363610  70.5742010
  22.5698040  11.0565500  71.2824460  19.0906320   6.5248810  71.9344260
  18.4834270   7.2647710  71.9439560  19.5655670   6.6148170  71.1082460
  26.4759280  11.3662160  69.8522690  26.5771260  11.1626150  68.9224670
  25.5761020  11.1120440  70.0570470  25.1177390  13.8848480  74.5470360
  25.3718890  13.8469870  73.6249730  24.1689870  13.7581810  74.5398610
  31.1229970   4.8040360  76.1228870  30.1820110   4.8190590  76.2976560
  31.4374040   4.0176320  76.5689170  21.1011610   6.4859960  69.6832830
  21.8674880   6.3741320  70.2458260  21.1786300   5.7897930  69.0309600
  19.7958370   3.9185030  70.3665720  19.8761960   2.9712540  70.4783120
  20.6878120   4.2491910  70.4726380  33.1255550  11.9749210  77.7983130
  33.2502970  12.7980380  78.2706940  33.9921110  11.7639940  77.4507280
  20.5973080  14.0680420  77.4700260  21.3335560  13.5195880  77.7408830
  20.9814000  14.9336430  77.3306250  17.4818560  10.1353990  73.3441770
  16.5558340  10.3775130  73.3347180  17.9474990  10.9628250  73.2226520
  23.7075390  13.2410730  69.2925830  24.5004000  13.5299560  68.8407620
  23.1879740  12.8102900  68.6138310  32.7605560  12.4680860  70.7162570
  32.4747070  12.0546000  69.9016750  32.5625110  13.3968570  70.5963090
  24.2252790   8.4614140  69.1568180  24.1203430   7.8466490  69.8829560
  24.0577010   7.9380030  68.3731190  27.4655520   7.5234170  69.7610170
  26.9165620   7.9703470  70.4052910  28.0874780   7.0183420  70.2847840
  23.1330640   6.4825090  71.6575470  23.5547060   6.3164960  72.5006860
  23.2581480   5.6725320  71.1630610  25.6458280   5.5062700  68.9052570
  26.1663940   4.7911720  68.5393720  26.2926680   6.1448570  69.2053080
  22.0289540   2.5558320  68.6033630  21.8278600   1.6925680  68.9646970
  21.8581590   2.4691680  67.6655230  26.2106310  13.5874310  71.1954310
  27.1057100  13.9259280  71.2173070  26.2423940  12.8653720  70.5678590
  19.8502470   8.9601360  69.4241310  20.2877340   9.5031030  70.0798890
  20.3350200   8.1348310  69.4337650  17.0648270  11.7490390  76.8761570
  17.3951280  10.8811450  76.6440210  17.4939270  11.9548910  77.7066530
  21.6610190  10.0799400  74.5363540  21.3605730   9.9564370  75.4367450
  21.5547680   9.2207990  74.1279270  34.4302110   9.8595800  69.2390220
  33.5995070   9.9272450  69.7097450  34.6073940  10.7499920  68.9357080
  33.8858570   6.6043280  71.7424420  34.6477480   7.1739930  71.8484110
  33.9012940   6.0370480  72.5132730  17.3862910   5.1281210  75.9732080
  16.7311750   4.8592850  75.3291780  18.2240860   5.0185690  75.5234060
  34.8918540   7.4593380  76.5866350  35.2627370   6.6760700  76.1802320
  35.5320470   8.1482480  76.4083650  33.9377740   6.8977650  68.8996940
  34.2126580   7.8056530  68.7716160  33.7488480   6.8340180  69.8358930
  33.8343080   4.8346640  73.8926370  33.4586680   4.0674570  73.4607660
  33.1046200   5.2169340  74.3801300  16.6000990   2.3380140  71.9157410
  15.6965070   2.6010340  71.7409070  17.0841610   2.6091310  71.1357370
  33.1094040   3.0604130  77.1933610  33.6331520   2.5666780  76.5623780
  33.6953460   3.1954490  77.9381180  32.5994010   2.3177480  73.1326020
  33.0953130   2.0848350  73.9174900  32.4010080   1.4789320  72.7163660
  31.9328350  13.5948560  75.5264940  32.5287420  13.2733130  74.8499360
  32.1906500  13.1220380  76.3178210  17.5921180  13.6561490  74.9558150
  17.4243220  13.0232170  75.6540040  16.7255690  13.8620890  74.6052340
  19.1983880  12.3494720  72.4008290  18.6731500  12.7302750  71.6970250
  19.1228460  12.9745490  73.1218000  33.9549200  13.9082260  73.7222230
  34.1301390  13.2220000  73.0783150  33.2570770  14.4329310  73.3298900
  21.7976850  14.2977100  71.2757540  22.5295670  14.0136380  70.7281430
  22.0570520  14.0590380  72.1656920  20.9591640  10.4141830  71.2803870
  20.3300520  10.8826930  71.8289700  21.0739470   9.5691050  71.7150060
  28.4141360   4.4647490  57.4305070  28.3335410   3.5502100  57.1596780
  28.0005780   4.9614560  56.7244780  26.5459400   6.2426510  59.3114340
  25.7701500   5.7626950  59.6012910  27.1972330   5.5632160  59.1370500
  20.5625230   6.5546320  60.1890100  19.7310110   6.2995030  60.5886610
  21.1706210   6.6257090  60.9248020  30.5666830  10.6486700  58.0913470
  30.1048360   9.8773940  58.4200640  31.3792380  10.6752770  58.5965920
  20.5426490  10.5886410  60.3848120  20.8454530   9.6984150  60.2058340
  21.2870080  11.1456630  60.1570370  16.9350190   4.1153860  59.8572190
  17.5066300   3.3476060  59.8575830  16.9351730   4.4142620  58.9478800
  26.7930140  12.9344710  57.7117460  26.1741580  13.3902210  57.1411900
  27.6481920  13.0896170  57.3107160  25.9868390   8.9183700  59.3184500
  25.9176670   7.9773640  59.1573630  26.7488250   9.0085110  59.8907070
  22.9886300   3.0666080  59.3396050  23.4964520   3.5647050  59.9801070
  23.5199540   2.2901280  59.1635410  27.6593490   7.8183950  55.1049370
  27.0410760   8.2833400  54.5412090  28.1716740   8.5111430  55.5218880
  22.5225250   7.3459820  61.7832970  22.1894630   7.9728740  62.4254040
  22.6991930   7.8721700  61.0034640  21.7344350   9.3140620  63.5982150
  22.3518350   9.9891700  63.3166600  20.8737470   9.7228600  63.5069650
  17.0276690   8.5040480  52.4789000  16.6504670   8.9927580  51.7473900
  17.2849760   9.1765760  53.1095530  32.6521940  10.7780030  61.5136790
  31.9685460  11.4479140  61.5053460  33.1916230  10.9760680  60.7481650
  30.1880680  12.6224160  60.2281970  30.2007840  12.2186450  59.3604230
  29.6355900  13.3971450  60.1243400  31.4826100   9.3440380  55.3172140
  31.3722430   8.4014710  55.4421560  31.4794350   9.7056020  56.2034900
  29.5866120   7.5254000  61.5564580  30.0034910   7.3114110  60.7218040
  30.3105940   7.7826790  62.1273200  27.0246380   4.9705700  54.6734630
  26.0975660   4.9043080  54.9023100  27.1771200   5.9085830  54.5589870
  33.5328220   5.9241220  61.6480820  32.7046850   5.9934310  61.1730950
  34.1278700   6.5095530  61.1796650  31.0543670   6.5326000  55.1769880
  30.4356090   6.1945550  54.5296180  31.0368120   5.8885760  55.8849070
  30.4970230   2.7110540  62.5935690  30.0841410   3.5364250  62.8475680
  29.7646180   2.1255580  62.4012050  22.6303020   5.4970440  57.4554360
  22.2260020   4.7847690  56.9600260  22.7166140   5.1523680  58.3442400
  23.0984720   9.1838000  59.6193570  22.8013010   8.5783470  58.9401350
  24.0484540   9.2215310  59.5082930  21.3431640   2.2713650  61.2353400
  21.8946230   2.3808990  60.4606650  21.8575150   2.6451250  61.9508630
  31.1870330  12.7569870  63.2816670  30.7100890  13.5642060  63.0889280
  30.5032120  12.1048200  63.4342880  22.1903150   8.9219690  66.2701370
  21.2931680   9.1459660  66.5174770  22.2156020   9.0454630  65.3212770
  29.2308370   5.7712810  52.1842630  29.6701650   4.9335240  52.0380450
  29.9436790   6.4042210  52.2706770  21.0174370   5.7933010  64.8458740
  20.8782140   6.6655810  65.2146140  20.1355730   5.4505820  64.7006680
  27.3403750  10.7108880  56.1523870  27.7799660  11.4533210  55.7379260
  27.2790640  10.9535450  57.0762830  22.8154720  11.7354710  67.0543890
  22.7870150  12.1397660  66.1872320  22.6519690  10.8065070  66.8915490
  19.3307650   4.3915420  54.9561010  19.2105250   5.1177510  54.3442280
  19.0208540   3.6218330  54.4788920  34.7669540  12.5181810  68.3508060
  35.2429260  12.9964700  69.0297140  35.3876700  12.4499300  67.6253560
  16.9693020   7.5630560  60.7629650  17.0473440   7.6979330  59.8185370
  17.5834700   6.8546450  60.9557770  18.2140650   9.2630750  57.1735830
  17.8068730   9.4045340  56.3189430  19.1053660   8.9790910  56.9707040
  34.1702790   9.7094660  65.5108070  34.2965850   9.4706540  64.5925250
  34.2124170   8.8779200  65.9830150  28.0319530  13.4122660  64.0802880
  28.5464200  13.3230670  64.8825310  27.1888610  13.7582360  64.3730790
  30.0073930  13.6978000  53.5086880  29.8475070  13.4080940  54.4068710
  29.8420640  12.9218130  52.9732110  22.4862310  13.4776530  55.2858500
  22.3104790  12.5612070  55.0726300  21.6318050  13.8363820  55.5256300
  29.7100060  11.2065560  52.0684880  29.0165220  11.2042850  51.4087160
  30.4522920  10.7824880  51.6379050  29.2749990  12.8328270  56.1433370
  29.7306940  12.0517650  56.4571990  29.6142510  13.5435090  56.6874550
  17.0252540   8.6044730  63.3024110  17.1883580   8.1350090  62.4843480
  17.4904990   8.0968290  63.9672950  31.0845630   1.8227960  65.0716660
  30.2339220   1.5233710  65.3925730  30.9247420   2.0669970  64.1600480
  28.1795340   3.3229710  67.1715450  28.5048750   2.4893460  66.8317680
  28.9675670   3.8458230  67.3193780  21.5885530   2.8584060  56.0665930
  21.3626450   2.6421230  56.9712550  20.8078060   3.2912520  55.7211900
  28.8183290   2.8647430  54.6656580  28.2192180   3.5883230  54.4820200
  29.3662900   2.8024210  53.8833030  24.0284740   3.7569640  66.7326200
  23.9328340   2.8164370  66.5826600  24.8716720   3.9784710  66.3374270
  16.6482560   2.0331890  50.1292780  16.5657230   2.9762650  50.2707770
  16.2965620   1.8906800  49.2505130  28.0103300   4.0916720  60.7910640
  27.2784420   4.6003530  61.1400740  27.6127640   3.2746700  60.4899420
  24.5100840   1.7683000  52.1869890  24.6313660   1.7269480  53.1355710
  24.1249350   2.6307150  52.0316620  23.5222340   4.0784140  51.5853190
  22.9539240   3.6302390  50.9589100  24.2311340   4.4376920  51.0518340
  18.5991520   7.9796160  65.4619920  18.2146310   7.3389830  66.0602880
  18.9103710   8.6832280  66.0314650  24.7488660   4.8272700  60.9428540
  25.1158790   4.3531270  61.6889880  24.5593720   5.7014270  61.2836880
  22.5388030   3.8681340  63.2612750  22.2345100   4.7473320  63.4863110
  23.4934490   3.9281130  63.2970190  21.0669820   8.0742330  53.8579600
  20.2932080   7.5339950  53.6978320  21.7964450   7.5548940  53.5197360
  31.8257800   7.0707690  59.6505990  32.5456920   7.5662980  59.2602100
  31.6239620   6.3925580  59.0059860  27.2076600   7.1416750  65.5374990
  27.1413910   6.2212420  65.2832580  26.5781740   7.2392190  66.2519630
  30.0016130   2.8365300  52.0897540  30.8895750   3.1482530  51.9148880
  29.9721220   1.9637550  51.6978120  21.1107220   7.7422710  57.4958410
  21.6285890   6.9390970  57.4415300  20.6591240   7.6801850  58.3375240
  25.9976720   9.0088990  52.7685710  26.3392420   9.7531220  52.2729030
  25.1689430   9.3220110  53.1310540  18.5951760   4.7084080  64.4084110
  18.2366700   5.3737930  64.9957450  18.3006320   3.8767630  64.7796730
  21.7964880   5.1668320  67.2923660  21.4965020   5.3125500  66.3951480
  22.5676120   4.6073610  67.1997050  27.1393330   9.9637320  65.2878790
  27.1537870   9.0318280  65.0697700  26.4318430  10.0497080  65.9268560
  32.2730400   4.1477140  51.5577400  32.1894120   4.5791360  50.7073840
  32.9924590   4.6075490  51.9904220  33.3504540   6.6044660  64.6347370
  32.6252730   7.1973440  64.4376760  33.8780000   6.5968200  63.8360740
  33.3017650  11.0019400  54.2859530  32.6593810  10.3475020  54.5603250
  32.9148310  11.4074490  53.5100200  28.8804130   8.3304830  58.1331220
  29.2327950   7.7332960  57.4732590  27.9966460   8.0049060  58.3039470
  24.9667410   9.0902520  55.5401630  25.6538540   9.6371730  55.9209220
  24.1799830   9.6343250  55.5751240  17.1059810   4.7075340  51.0318710
  17.9754660   4.9900140  51.3154630  16.6150130   5.5211210  50.9167520
  24.2694620   6.0948550  55.1526990  24.7257400   6.9053800  55.3787180
  23.9182830   5.7771690  55.9845480  26.5727230  11.6054890  62.3819290
  27.2169450  11.8114270  63.0592710  26.9356670  10.8443290  61.9290140
  27.8459310   9.6087240  61.0996740  28.4881540   8.9080400  61.2128910
  28.3708660  10.3885680  60.9193630  31.6915030   9.8935860  50.8235880
  31.4652610   9.1766300  51.4160520  31.3011230   9.6448300  49.9857630
  29.6196930  10.4082140  64.3032800  29.9553170  10.9948830  64.9810720
  28.6997270  10.2774850  64.5330590  17.4731060  13.9202720  51.5980340
  17.8328700  14.5192060  50.9437610  17.3323400  14.4662610  52.3715370
  31.2731280   7.8107800  52.4850040  30.9852980   8.2720490  53.2727920
  32.0683450   7.3505570  52.7534260  17.4572920  12.1857580  66.0722740
  17.5664040  11.2452320  65.9318130  16.8053480  12.4512330  65.4236470
  25.4485510  10.4573470  67.4720860  25.1282380   9.7382710  68.0166550
  24.7743870  11.1328540  67.5456920  23.4899680  11.3033920  52.4154010
  23.4809780  12.0363610  51.7998520  22.5698040  11.0565500  52.5080970
  19.0906320   6.5248810  53.1600770  18.4834270   7.2647710  53.1696070
  19.5655670   6.6148170  52.3338970  26.4759280  11.3662160  51.0779200
  26.5771260  11.1626150  50.1481180  25.5761020  11.1120440  51.2826980
  25.6241100   3.3439220  63.0595630  26.1226350   3.8185040  63.7247480
  25.7664050   2.4202740  63.2665660  25.1177390  13.8848480  55.7726870
  25.3718890  13.8469870  54.8506240  24.1689870  13.7581810  55.7655120
  31.1229970   4.8040360  57.3485380  30.1820110   4.8190590  57.5233070
  31.4374040   4.0176320  57.7945680  21.1011610   6.4859960  50.9089340
  21.8674880   6.3741320  51.4714770  21.1786300   5.7897930  50.2566110
  19.7958370   3.9185030  51.5922230  19.8761960   2.9712540  51.7039630
  20.6878120   4.2491910  51.6982890  33.1255550  11.9749210  59.0239640
  33.2502970  12.7980380  59.4963450  33.9921110  11.7639940  58.6763790
  20.5973080  14.0680420  58.6956770  21.3335560  13.5195880  58.9665340
  20.9814000  14.9336430  58.5562760  17.4818560  10.1353990  54.5698280
  16.5558340  10.3775130  54.5603690  17.9474990  10.9628250  54.4483030
  19.6031360  13.2526490  67.8842350  20.4044090  13.5738540  68.2977750
  19.0883180  12.8922070  68.6062260  23.7075390  13.2410730  50.5182340
  24.5004000  13.5299560  50.0664130  23.1879740  12.8102900  49.8394820
  28.4395990   9.3606360  67.8317760  27.8334150   9.3837960  67.0913510
  28.1350100   8.6289400  68.3685010  29.8696360  13.0886650  66.4427170
  30.8218110  13.0044670  66.3927410  29.7224580  13.7528360  67.1160960
  32.7605560  12.4680860  51.9419080  32.4747070  12.0546000  51.1273260
  32.5625110  13.3968570  51.8219600  17.3229170   5.7399950  66.8278400
  17.8268190   5.1607230  67.3994630  16.5836590   6.0240180  67.3654770
  24.2252790   8.4614140  50.3824690  24.1203430   7.8466490  51.1086070
  24.0577010   7.9380030  49.5987700  24.3767110   7.1470940  66.3613920
  23.6112780   7.7155940  66.2768590  24.5583070   6.8547150  65.4682150
  27.4655520   7.5234170  50.9866680  26.9165620   7.9703470  51.6309420
  28.0874780   7.0183420  51.5104350  31.5190460   8.8776270  66.9188940
  32.2599930   9.2152030  66.4156400  30.7563140   9.0468330  66.3658710
  19.3552250   3.8829540  67.7228470  19.3957590   3.5843410  68.6313700
  20.2097750   4.2837150  67.5635990  23.1330640   6.4825090  52.8831980
  23.5547060   6.3164960  53.7263370  23.2581480   5.6725320  52.3887120
  21.2958060   2.4621640  65.6902960  20.7654520   1.9712590  65.0626300
  21.9646130   2.8905840  65.1560890  25.6458280   5.5062700  50.1309080
  26.1663940   4.7911720  49.7650230  26.2926680   6.1448570  50.4309590
  30.1936120   6.9291100  65.4544150  30.6077140   7.0836180  66.3034570
  29.2587120   7.0546320  65.6169930  30.6658290   4.2687260  67.4583300
  31.2479060   3.5139580  67.3703780  30.8420060   4.7994700  66.6814780
  24.9551350   6.8811580  63.4240080  25.3739460   7.7244310  63.2516320
  24.0359980   7.0183620  63.1946860  27.2915250   4.6127760  64.8077920
  27.4111460   4.0168900  65.5472760  28.1509250   4.6497450  64.3879220
  29.6303150   5.1664950  63.3840430  29.1038370   5.6907570  62.7805570
  29.9734490   5.7992340  64.0150160  22.0289540   2.5558320  49.8290140
  21.8278600   1.6925680  50.1903480  21.8581590   2.4691680  48.8911740
  22.8058770  13.1864590  64.5397810  22.2679860  13.9110650  64.2206510
  23.0592730  12.7094930  63.7495150  25.6620980  14.4215800  64.7984460
  25.5879680  15.3250940  65.1056830  24.7599820  14.1027700  64.7706530
  26.2106310  13.5874310  52.4210820  27.1057100  13.9259280  52.4429580
  26.2423940  12.8653720  51.7935100  19.8502470   8.9601360  50.6497820
  20.2877340   9.5031030  51.3055400  20.3350200   8.1348310  50.6594160
  17.0648270  11.7490390  58.1018080  17.3951280  10.8811450  57.8696720
  17.4939270  11.9548910  58.9323040  21.6610190  10.0799400  55.7620050
  21.3605730   9.9564370  56.6623960  21.5547680   9.2207990  55.3535780
  17.5538480  12.6160980  60.8399710  17.1169470  12.7961780  61.6723860
  18.1216160  13.3735600  60.6981430  33.1900660  12.1177980  65.1277020
  32.5902650  12.1770540  64.3840940  33.3194560  11.1782960  65.2573870
  34.4302110   9.8595800  50.4646730  33.5995070   9.9272450  50.9353960
  34.6073940  10.7499920  50.1613590  33.8858570   6.6043280  52.9680930
  34.6477480   7.1739930  53.0740620  33.9012940   6.0370480  53.7389240
  17.3862910   5.1281210  57.1988590  16.7311750   4.8592850  56.5548290
  18.2240860   5.0185690  56.7490570  34.8918540   7.4593380  57.8122860
  35.2627370   6.6760700  57.4058830  35.5320470   8.1482480  57.6340160
  31.8752300   8.8429960  63.2253180  31.0612140   9.2727120  63.4878970
  32.2826500   9.4548370  62.6122230  33.9377740   6.8977650  50.1253450
  34.2126580   7.8056530  49.9972670  33.7488480   6.8340180  51.0615440
  33.8343080   4.8346640  55.1182880  33.4586680   4.0674570  54.6864170
  33.1046200   5.2169340  55.6057810  18.4238840   5.5133780  61.7391930
  18.7911880   5.4261180  62.6187950  17.8549660   4.7500330  61.6398790
  33.2242700   3.9818160  64.7522400  32.9928790   3.7530910  63.8520350
  33.4847250   4.9017710  64.7067290  17.9754840   2.4242870  65.6450350
  17.0810890   2.3909630  65.9844060  18.5152390   2.6229660  66.4101600
  16.6000990   2.3380140  53.1413920  15.6965070   2.6010340  52.9665580
  17.0841610   2.6091310  52.3613880  33.1094040   3.0604130  58.4190120
  33.6331520   2.5666780  57.7880290  33.6953460   3.1954490  59.1637690
  33.2883760   3.1444000  61.9409670  32.3386470   3.1107540  62.0554660
  33.4696770   4.0544110  61.7059440  32.5994010   2.3177480  54.3582530
  33.0953130   2.0848350  55.1431410  32.4010080   1.4789320  53.9420170
  31.9328350  13.5948560  56.7521450  32.5287420  13.2733130  56.0755870
  32.1906500  13.1220380  57.5434720  19.8390920  10.0266470  66.9012080
  19.7960550   9.6559380  67.7826540  19.9701930  10.9644040  67.0413900
  23.5396950  11.5826060  62.5021800  23.2988310  11.8500620  61.6152320
  24.4799590  11.7531790  62.5572660  34.8001110  13.6020440  63.3032440
  34.3059390  13.9989310  62.5859570  34.1914400  12.9769650  63.6969720
  19.6778950  12.9728720  64.0209860  19.0839270  12.8413420  64.7599900
  19.6702790  12.1366860  63.5551960  32.4840560  14.2443860  60.5819180
  32.0243530  14.9959670  60.2077200  31.8553020  13.5250330  60.5233980
  19.3091180  10.3387100  62.9717900  18.5825240   9.7192390  62.9043850
  19.3700330  10.7327710  62.1015980  22.9136280  12.5532100  59.7567310
  23.4301300  11.9419460  59.2315570  23.5633660  13.0560880  60.2478320
  25.6531780  13.4440590  60.5836290  25.9409590  13.1894890  59.7069300
  26.1655000  12.8917950  61.1741860  17.5921180  13.6561490  56.1814660
  17.4243220  13.0232170  56.8796550  16.7255690  13.8620890  55.8308850
  19.1983880  12.3494720  53.6264800  18.6731500  12.7302750  52.9226760
  19.1228460  12.9745490  54.3474510  25.7204140  14.3656690  67.9504490
  26.6471450  14.1300960  67.9940450  25.7054570  15.1928690  67.4690520
  33.9549200  13.9082260  54.9478740  34.1301390  13.2220000  54.3039660
  33.2570770  14.4329310  54.5555410  21.7976850  14.2977100  52.5014050
  22.5295670  14.0136380  51.9537940  22.0570520  14.0590380  53.3913430
  20.9591640  10.4141830  52.5060380  20.3300520  10.8826930  53.0546210
  21.0739470   9.5691050  52.9406570  32.2881700  13.5926550  67.7745530
  33.0807020  13.0975780  67.5671490  32.5814850  14.2716690  68.3821140
  28.4141360   4.4647490  38.6561580  28.3335410   3.5502100  38.3853290
  28.0005780   4.9614560  37.9501290  26.5459400   6.2426510  40.5370850
  25.7701500   5.7626950  40.8269420  27.1972330   5.5632160  40.3627010
  20.5625230   6.5546320  41.4146610  19.7310110   6.2995030  41.8143120
  21.1706210   6.6257090  42.1504530  30.5666830  10.6486700  39.3169980
  30.1048360   9.8773940  39.6457150  31.3792380  10.6752770  39.8222430
  20.5426490  10.5886410  41.6104630  20.8454530   9.6984150  41.4314850
  21.2870080  11.1456630  41.3826880  16.9350190   4.1153860  41.0828700
  17.5066300   3.3476060  41.0832340  16.9351730   4.4142620  40.1735310
  26.7930140  12.9344710  38.9373970  26.1741580  13.3902210  38.3668410
  27.6481920  13.0896170  38.5363670  25.9868390   8.9183700  40.5441010
  25.9176670   7.9773640  40.3830140  26.7488250   9.0085110  41.1163580
  22.9886300   3.0666080  40.5652560  23.4964520   3.5647050  41.2057580
  23.5199540   2.2901280  40.3891920  27.6593490   7.8183950  36.3305880
  27.0410760   8.2833400  35.7668600  28.1716740   8.5111430  36.7475390
  22.5225250   7.3459820  43.0089480  22.1894630   7.9728740  43.6510550
  22.6991930   7.8721700  42.2291150  21.7344350   9.3140620  44.8238660
  22.3518350   9.9891700  44.5423110  20.8737470   9.7228600  44.7326160
  17.0276690   8.5040480  33.7045510  16.6504670   8.9927580  32.9730410
  17.2849760   9.1765760  34.3352040  32.6521940  10.7780030  42.7393300
  31.9685460  11.4479140  42.7309970  33.1916230  10.9760680  41.9738160
  30.1880680  12.6224160  41.4538480  30.2007840  12.2186450  40.5860740
  29.6355900  13.3971450  41.3499910  31.4826100   9.3440380  36.5428650
  31.3722430   8.4014710  36.6678070  31.4794350   9.7056020  37.4291410
  29.5866120   7.5254000  42.7821090  30.0034910   7.3114110  41.9474550
  30.3105940   7.7826790  43.3529710  27.0246380   4.9705700  35.8991140
  26.0975660   4.9043080  36.1279610  27.1771200   5.9085830  35.7846380
  33.5328220   5.9241220  42.8737330  32.7046850   5.9934310  42.3987460
  34.1278700   6.5095530  42.4053160  31.0543670   6.5326000  36.4026390
  30.4356090   6.1945550  35.7552690  31.0368120   5.8885760  37.1105580
  30.4970230   2.7110540  43.8192200  30.0841410   3.5364250  44.0732190
  29.7646180   2.1255580  43.6268560  22.6303020   5.4970440  38.6810870
  22.2260020   4.7847690  38.1856770  22.7166140   5.1523680  39.5698910
  23.0984720   9.1838000  40.8450080  22.8013010   8.5783470  40.1657860
  24.0484540   9.2215310  40.7339440  21.3431640   2.2713650  42.4609910
  21.8946230   2.3808990  41.6863160  21.8575150   2.6451250  43.1765140
  31.1870330  12.7569870  44.5073180  30.7100890  13.5642060  44.3145790
  30.5032120  12.1048200  44.6599390  22.1903150   8.9219690  47.4957880
  21.2931680   9.1459660  47.7431280  22.2156020   9.0454630  46.5469280
  29.2308370   5.7712810  33.4099140  29.6701650   4.9335240  33.2636960
  29.9436790   6.4042210  33.4963280  21.0174370   5.7933010  46.0715250
  20.8782140   6.6655810  46.4402650  20.1355730   5.4505820  45.9263190
  27.3403750  10.7108880  37.3780380  27.7799660  11.4533210  36.9635770
  27.2790640  10.9535450  38.3019340  22.8154720  11.7354710  48.2800400
  22.7870150  12.1397660  47.4128830  22.6519690  10.8065070  48.1172000
  19.3307650   4.3915420  36.1817520  19.2105250   5.1177510  35.5698790
  19.0208540   3.6218330  35.7045430  34.7669540  12.5181810  49.5764570
  35.2429260  12.9964700  50.2553650  35.3876700  12.4499300  48.8510070
  16.9693020   7.5630560  41.9886160  17.0473440   7.6979330  41.0441880
  17.5834700   6.8546450  42.1814280  18.2140650   9.2630750  38.3992340
  17.8068730   9.4045340  37.5445940  19.1053660   8.9790910  38.1963550
  34.1702790   9.7094660  46.7364580  34.2965850   9.4706540  45.8181760
  34.2124170   8.8779200  47.2086660  28.0319530  13.4122660  45.3059390
  28.5464200  13.3230670  46.1081820  27.1888610  13.7582360  45.5987300
  30.0073930  13.6978000  34.7343390  29.8475070  13.4080940  35.6325220
  29.8420640  12.9218130  34.1988620  22.4862310  13.4776530  36.5115010
  22.3104790  12.5612070  36.2982810  21.6318050  13.8363820  36.7512810
  29.7100060  11.2065560  33.2941390  29.0165220  11.2042850  32.6343670
  30.4522920  10.7824880  32.8635560  29.2749990  12.8328270  37.3689880
  29.7306940  12.0517650  37.6828500  29.6142510  13.5435090  37.9131060
  17.0252540   8.6044730  44.5280620  17.1883580   8.1350090  43.7099990
  17.4904990   8.0968290  45.1929460  31.0845630   1.8227960  46.2973170
  30.2339220   1.5233710  46.6182240  30.9247420   2.0669970  45.3856990
  28.1795340   3.3229710  48.3971960  28.5048750   2.4893460  48.0574190
  28.9675670   3.8458230  48.5450290  21.5885530   2.8584060  37.2922440
  21.3626450   2.6421230  38.1969060  20.8078060   3.2912520  36.9468410
  28.8183290   2.8647430  35.8913090  28.2192180   3.5883230  35.7076710
  29.3662900   2.8024210  35.1089540  24.0284740   3.7569640  47.9582710
  23.9328340   2.8164370  47.8083110  24.8716720   3.9784710  47.5630780
  16.6482560   2.0331890  31.3549290  16.5657230   2.9762650  31.4964280
  16.2965620   1.8906800  30.4761640  28.0103300   4.0916720  42.0167150
  27.2784420   4.6003530  42.3657250  27.6127640   3.2746700  41.7155930
  24.5100840   1.7683000  33.4126400  24.6313660   1.7269480  34.3612220
  24.1249350   2.6307150  33.2573130  23.5222340   4.0784140  32.8109700
  22.9539240   3.6302390  32.1845610  24.2311340   4.4376920  32.2774850
  18.5991520   7.9796160  46.6876430  18.2146310   7.3389830  47.2859390
  18.9103710   8.6832280  47.2571160  24.7488660   4.8272700  42.1685050
  25.1158790   4.3531270  42.9146390  24.5593720   5.7014270  42.5093390
  22.5388030   3.8681340  44.4869260  22.2345100   4.7473320  44.7119620
  23.4934490   3.9281130  44.5226700  21.0669820   8.0742330  35.0836110
  20.2932080   7.5339950  34.9234830  21.7964450   7.5548940  34.7453870
  31.8257800   7.0707690  40.8762500  32.5456920   7.5662980  40.4858610
  31.6239620   6.3925580  40.2316370  27.2076600   7.1416750  46.7631500
  27.1413910   6.2212420  46.5089090  26.5781740   7.2392190  47.4776140
  30.0016130   2.8365300  33.3154050  30.8895750   3.1482530  33.1405390
  29.9721220   1.9637550  32.9234630  21.1107220   7.7422710  38.7214920
  21.6285890   6.9390970  38.6671810  20.6591240   7.6801850  39.5631750
  25.9976720   9.0088990  33.9942220  26.3392420   9.7531220  33.4985540
  25.1689430   9.3220110  34.3567050  18.5951760   4.7084080  45.6340620
  18.2366700   5.3737930  46.2213960  18.3006320   3.8767630  46.0053240
  21.7964880   5.1668320  48.5180170  21.4965020   5.3125500  47.6207990
  22.5676120   4.6073610  48.4253560  27.1393330   9.9637320  46.5135300
  27.1537870   9.0318280  46.2954210  26.4318430  10.0497080  47.1525070
  32.2730400   4.1477140  32.7833910  32.1894120   4.5791360  31.9330350
  32.9924590   4.6075490  33.2160730  33.3504540   6.6044660  45.8603880
  32.6252730   7.1973440  45.6633270  33.8780000   6.5968200  45.0617250
  33.3017650  11.0019400  35.5116040  32.6593810  10.3475020  35.7859760
  32.9148310  11.4074490  34.7356710  28.8804130   8.3304830  39.3587730
  29.2327950   7.7332960  38.6989100  27.9966460   8.0049060  39.5295980
  24.9667410   9.0902520  36.7658140  25.6538540   9.6371730  37.1465730
  24.1799830   9.6343250  36.8007750  17.1059810   4.7075340  32.2575220
  17.9754660   4.9900140  32.5411140  16.6150130   5.5211210  32.1424030
  24.2694620   6.0948550  36.3783500  24.7257400   6.9053800  36.6043690
  23.9182830   5.7771690  37.2101990  26.5727230  11.6054890  43.6075800
  27.2169450  11.8114270  44.2849220  26.9356670  10.8443290  43.1546650
  27.8459310   9.6087240  42.3253250  28.4881540   8.9080400  42.4385420
  28.3708660  10.3885680  42.1450140  31.6915030   9.8935860  32.0492390
  31.4652610   9.1766300  32.6417030  31.3011230   9.6448300  31.2114140
  29.6196930  10.4082140  45.5289310  29.9553170  10.9948830  46.2067230
  28.6997270  10.2774850  45.7587100  17.4731060  13.9202720  32.8236850
  17.8328700  14.5192060  32.1694120  17.3323400  14.4662610  33.5971880
  31.2731280   7.8107800  33.7106550  30.9852980   8.2720490  34.4984430
  32.0683450   7.3505570  33.9790770  17.4572920  12.1857580  47.2979250
  17.5664040  11.2452320  47.1574640  16.8053480  12.4512330  46.6492980
  25.4485510  10.4573470  48.6977370  25.1282380   9.7382710  49.2423060
  24.7743870  11.1328540  48.7713430  23.4899680  11.3033920  33.6410520
  23.4809780  12.0363610  33.0255030  22.5698040  11.0565500  33.7337480
  19.0906320   6.5248810  34.3857280  18.4834270   7.2647710  34.3952580
  19.5655670   6.6148170  33.5595480  26.4759280  11.3662160  32.3035710
  26.5771260  11.1626150  31.3737690  25.5761020  11.1120440  32.5083490
  25.6241100   3.3439220  44.2852140  26.1226350   3.8185040  44.9503990
  25.7664050   2.4202740  44.4922170  25.1177390  13.8848480  36.9983380
  25.3718890  13.8469870  36.0762750  24.1689870  13.7581810  36.9911630
  31.1229970   4.8040360  38.5741890  30.1820110   4.8190590  38.7489580
  31.4374040   4.0176320  39.0202190  21.1011610   6.4859960  32.1345850
  21.8674880   6.3741320  32.6971280  21.1786300   5.7897930  31.4822620
  19.7958370   3.9185030  32.8178740  19.8761960   2.9712540  32.9296140
  20.6878120   4.2491910  32.9239400  33.1255550  11.9749210  40.2496150
  33.2502970  12.7980380  40.7219960  33.9921110  11.7639940  39.9020300
  20.5973080  14.0680420  39.9213280  21.3335560  13.5195880  40.1921850
  20.9814000  14.9336430  39.7819270  17.4818560  10.1353990  35.7954790
  16.5558340  10.3775130  35.7860200  17.9474990  10.9628250  35.6739540
  19.6031360  13.2526490  49.1098860  20.4044090  13.5738540  49.5234260
  19.0883180  12.8922070  49.8318770  23.7075390  13.2410730  31.7438850
  24.5004000  13.5299560  31.2920640  23.1879740  12.8102900  31.0651330
  28.4395990   9.3606360  49.0574270  27.8334150   9.3837960  48.3170020
  28.1350100   8.6289400  49.5941520  29.8696360  13.0886650  47.6683680
  30.8218110  13.0044670  47.6183920  29.7224580  13.7528360  48.3417470
  32.7605560  12.4680860  33.1675590  32.4747070  12.0546000  32.3529770
  32.5625110  13.3968570  33.0476110  17.3229170   5.7399950  48.0534910
  17.8268190   5.1607230  48.6251140  16.5836590   6.0240180  48.5911280
  24.2252790   8.4614140  31.6081200  24.1203430   7.8466490  32.3342580
  24.0577010   7.9380030  30.8244210  24.3767110   7.1470940  47.5870430
  23.6112780   7.7155940  47.5025100  24.5583070   6.8547150  46.6938660
  27.4655520   7.5234170  32.2123190  26.9165620   7.9703470  32.8565930
  28.0874780   7.0183420  32.7360860  31.5190460   8.8776270  48.1445450
  32.2599930   9.2152030  47.6412910  30.7563140   9.0468330  47.5915220
  19.3552250   3.8829540  48.9484980  19.3957590   3.5843410  49.8570210
  20.2097750   4.2837150  48.7892500  23.1330640   6.4825090  34.1088490
  23.5547060   6.3164960  34.9519880  23.2581480   5.6725320  33.6143630
  21.2958060   2.4621640  46.9159470  20.7654520   1.9712590  46.2882810
  21.9646130   2.8905840  46.3817400  25.6458280   5.5062700  31.3565590
  26.1663940   4.7911720  30.9906740  26.2926680   6.1448570  31.6566100
  30.1936120   6.9291100  46.6800660  30.6077140   7.0836180  47.5291080
  29.2587120   7.0546320  46.8426440  30.6658290   4.2687260  48.6839810
  31.2479060   3.5139580  48.5960290  30.8420060   4.7994700  47.9071290
  24.9551350   6.8811580  44.6496590  25.3739460   7.7244310  44.4772830
  24.0359980   7.0183620  44.4203370  27.2915250   4.6127760  46.0334430
  27.4111460   4.0168900  46.7729270  28.1509250   4.6497450  45.6135730
  29.6303150   5.1664950  44.6096940  29.1038370   5.6907570  44.0062080
  29.9734490   5.7992340  45.2406670  22.0289540   2.5558320  31.0546650
  21.8278600   1.6925680  31.4159990  21.8581590   2.4691680  30.1168250
  22.8058770  13.1864590  45.7654320  22.2679860  13.9110650  45.4463020
  23.0592730  12.7094930  44.9751660  25.6620980  14.4215800  46.0240970
  25.5879680  15.3250940  46.3313340  24.7599820  14.1027700  45.9963040
  26.2106310  13.5874310  33.6467330  27.1057100  13.9259280  33.6686090
  26.2423940  12.8653720  33.0191610  19.8502470   8.9601360  31.8754330
  20.2877340   9.5031030  32.5311910  20.3350200   8.1348310  31.8850670
  17.0648270  11.7490390  39.3274590  17.3951280  10.8811450  39.0953230
  17.4939270  11.9548910  40.1579550  21.6610190  10.0799400  36.9876560
  21.3605730   9.9564370  37.8880470  21.5547680   9.2207990  36.5792290
  17.5538480  12.6160980  42.0656220  17.1169470  12.7961780  42.8980370
  18.1216160  13.3735600  41.9237940  33.1900660  12.1177980  46.3533530
  32.5902650  12.1770540  45.6097450  33.3194560  11.1782960  46.4830380
  34.4302110   9.8595800  31.6903240  33.5995070   9.9272450  32.1610470
  34.6073940  10.7499920  31.3870100  33.8858570   6.6043280  34.1937440
  34.6477480   7.1739930  34.2997130  33.9012940   6.0370480  34.9645750
  17.3862910   5.1281210  38.4245100  16.7311750   4.8592850  37.7804800
  18.2240860   5.0185690  37.9747080  34.8918540   7.4593380  39.0379370
  35.2627370   6.6760700  38.6315340  35.5320470   8.1482480  38.8596670
  31.8752300   8.8429960  44.4509690  31.0612140   9.2727120  44.7135480
  32.2826500   9.4548370  43.8378740  33.9377740   6.8977650  31.3509960
  34.2126580   7.8056530  31.2229180  33.7488480   6.8340180  32.2871950
  33.8343080   4.8346640  36.3439390  33.4586680   4.0674570  35.9120680
  33.1046200   5.2169340  36.8314320  18.4238840   5.5133780  42.9648440
  18.7911880   5.4261180  43.8444460  17.8549660   4.7500330  42.8655300
  33.2242700   3.9818160  45.9778910  32.9928790   3.7530910  45.0776860
  33.4847250   4.9017710  45.9323800  17.9754840   2.4242870  46.8706860
  17.0810890   2.3909630  47.2100570  18.5152390   2.6229660  47.6358110
  16.6000990   2.3380140  34.3670430  15.6965070   2.6010340  34.1922090
  17.0841610   2.6091310  33.5870390  33.1094040   3.0604130  39.6446630
  33.6331520   2.5666780  39.0136800  33.6953460   3.1954490  40.3894200
  33.2883760   3.1444000  43.1666180  32.3386470   3.1107540  43.2811170
  33.4696770   4.0544110  42.9315950  32.5994010   2.3177480  35.5839040
  33.0953130   2.0848350  36.3687920  32.4010080   1.4789320  35.1676680
  31.9328350  13.5948560  37.9777960  32.5287420  13.2733130  37.3012380
  32.1906500  13.1220380  38.7691230  19.8390920  10.0266470  48.1268590
  19.7960550   9.6559380  49.0083050  19.9701930  10.9644040  48.2670410
  23.5396950  11.5826060  43.7278310  23.2988310  11.8500620  42.8408830
  24.4799590  11.7531790  43.7829170  34.8001110  13.6020440  44.5288950
  34.3059390  13.9989310  43.8116080  34.1914400  12.9769650  44.9226230
  19.6778950  12.9728720  45.2466370  19.0839270  12.8413420  45.9856410
  19.6702790  12.1366860  44.7808470  32.4840560  14.2443860  41.8075690
  32.0243530  14.9959670  41.4333710  31.8553020  13.5250330  41.7490490
  19.3091180  10.3387100  44.1974410  18.5825240   9.7192390  44.1300360
  19.3700330  10.7327710  43.3272490  22.9136280  12.5532100  40.9823820
  23.4301300  11.9419460  40.4572080  23.5633660  13.0560880  41.4734830
  25.6531780  13.4440590  41.8092800  25.9409590  13.1894890  40.9325810
  26.1655000  12.8917950  42.3998370  17.5921180  13.6561490  37.4071170
  17.4243220  13.0232170  38.1053060  16.7255690  13.8620890  37.0565360
  19.1983880  12.3494720  34.8521310  18.6731500  12.7302750  34.1483270
  19.1228460  12.9745490  35.5731020  25.7204140  14.3656690  49.1761000
  26.6471450  14.1300960  49.2196960  25.7054570  15.1928690  48.6947030
  33.9549200  13.9082260  36.1735250  34.1301390  13.2220000  35.5296170
  33.2570770  14.4329310  35.7811920  21.7976850  14.2977100  33.7270560
  22.5295670  14.0136380  33.1794450  22.0570520  14.0590380  34.6169940
  20.9591640  10.4141830  33.7316890  20.3300520  10.8826930  34.2802720
  21.0739470   9.5691050  34.1663080  32.2881700  13.5926550  49.0002040
  33.0807020  13.0975780  48.7928000  32.5814850  14.2716690  49.6077650
  28.4141360   4.4647490  19.8818090  28.3335410   3.5502100  19.6109800
  28.0005780   4.9614560  19.1757800  26.5459400   6.2426510  21.7627360
  25.7701500   5.7626950  22.0525930  27.1972330   5.5632160  21.5883520
  20.5625230   6.5546320  22.6403120  19.7310110   6.2995030  23.0399630
  21.1706210   6.6257090  23.3761040  30.5666830  10.6486700  20.5426490
  30.1048360   9.8773940  20.8713660  31.3792380  10.6752770  21.0478940
  20.5426490  10.5886410  22.8361140  20.8454530   9.6984150  22.6571360
  21.2870080  11.1456630  22.6083390  16.9350190   4.1153860  22.3085210
  17.5066300   3.3476060  22.3088850  16.9351730   4.4142620  21.3991820
  26.7930140  12.9344710  20.1630480  26.1741580  13.3902210  19.5924920
  27.6481920  13.0896170  19.7620180  25.9868390   8.9183700  21.7697520
  25.9176670   7.9773640  21.6086650  26.7488250   9.0085110  22.3420090
  22.9886300   3.0666080  21.7909070  23.4964520   3.5647050  22.4314090
  23.5199540   2.2901280  21.6148430  27.6593490   7.8183950  17.5562390
  27.0410760   8.2833400  16.9925110  28.1716740   8.5111430  17.9731900
  22.5225250   7.3459820  24.2345990  22.1894630   7.9728740  24.8767060
  22.6991930   7.8721700  23.4547660  21.7344350   9.3140620  26.0495170
  22.3518350   9.9891700  25.7679620  20.8737470   9.7228600  25.9582670
  17.0276690   8.5040480  14.9302020  16.6504670   8.9927580  14.1986920
  17.2849760   9.1765760  15.5608550  32.6521940  10.7780030  23.9649810
  31.9685460  11.4479140  23.9566480  33.1916230  10.9760680  23.1994670
  30.1880680  12.6224160  22.6794990  30.2007840  12.2186450  21.8117250
  29.6355900  13.3971450  22.5756420  31.4826100   9.3440380  17.7685160
  31.3722430   8.4014710  17.8934580  31.4794350   9.7056020  18.6547920
  29.5866120   7.5254000  24.0077600  30.0034910   7.3114110  23.1731060
  30.3105940   7.7826790  24.5786220  27.0246380   4.9705700  17.1247650
  26.0975660   4.9043080  17.3536120  27.1771200   5.9085830  17.0102890
  33.5328220   5.9241220  24.0993840  32.7046850   5.9934310  23.6243970
  34.1278700   6.5095530  23.6309670  31.0543670   6.5326000  17.6282900
  30.4356090   6.1945550  16.9809200  31.0368120   5.8885760  18.3362090
  30.4970230   2.7110540  25.0448710  30.0841410   3.5364250  25.2988700
  29.7646180   2.1255580  24.8525070  22.6303020   5.4970440  19.9067380
  22.2260020   4.7847690  19.4113280  22.7166140   5.1523680  20.7955420
  23.0984720   9.1838000  22.0706590  22.8013010   8.5783470  21.3914370
  24.0484540   9.2215310  21.9595950  21.3431640   2.2713650  23.6866420
  21.8946230   2.3808990  22.9119670  21.8575150   2.6451250  24.4021650
  31.1870330  12.7569870  25.7329690  30.7100890  13.5642060  25.5402300
  30.5032120  12.1048200  25.8855900  22.1903150   8.9219690  28.7214390
  21.2931680   9.1459660  28.9687790  22.2156020   9.0454630  27.7725790
  29.2308370   5.7712810  14.6355650  29.6701650   4.9335240  14.4893470
  29.9436790   6.4042210  14.7219790  21.0174370   5.7933010  27.2971760
  20.8782140   6.6655810  27.6659160  20.1355730   5.4505820  27.1519700
  27.3403750  10.7108880  18.6036890  27.7799660  11.4533210  18.1892280
  27.2790640  10.9535450  19.5275850  22.8154720  11.7354710  29.5056910
  22.7870150  12.1397660  28.6385340  22.6519690  10.8065070  29.3428510
  19.3307650   4.3915420  17.4074030  19.2105250   5.1177510  16.7955300
  19.0208540   3.6218330  16.9301940  34.7669540  12.5181810  30.8021080
  35.2429260  12.9964700  31.4810160  35.3876700  12.4499300  30.0766580
  16.9693020   7.5630560  23.2142670  17.0473440   7.6979330  22.2698390
  17.5834700   6.8546450  23.4070790  18.2140650   9.2630750  19.6248850
  17.8068730   9.4045340  18.7702450  19.1053660   8.9790910  19.4220060
  34.1702790   9.7094660  27.9621090  34.2965850   9.4706540  27.0438270
  34.2124170   8.8779200  28.4343170  28.0319530  13.4122660  26.5315900
  28.5464200  13.3230670  27.3338330  27.1888610  13.7582360  26.8243810
  30.0073930  13.6978000  15.9599900  29.8475070  13.4080940  16.8581730
  29.8420640  12.9218130  15.4245130  22.4862310  13.4776530  17.7371520
  22.3104790  12.5612070  17.5239320  21.6318050  13.8363820  17.9769320
  29.7100060  11.2065560  14.5197900  29.0165220  11.2042850  13.8600180
  30.4522920  10.7824880  14.0892070  29.2749990  12.8328270  18.5946390
  29.7306940  12.0517650  18.9085010  29.6142510  13.5435090  19.1387570
  17.0252540   8.6044730  25.7537130  17.1883580   8.1350090  24.9356500
  17.4904990   8.0968290  26.4185970  31.0845630   1.8227960  27.5229680
  30.2339220   1.5233710  27.8438750  30.9247420   2.0669970  26.6113500
  28.1795340   3.3229710  29.6228470  28.5048750   2.4893460  29.2830700
  28.9675670   3.8458230  29.7706800  21.5885530   2.8584060  18.5178950
  21.3626450   2.6421230  19.4225570  20.8078060   3.2912520  18.1724920
  28.8183290   2.8647430  17.1169600  28.2192180   3.5883230  16.9333220
  29.3662900   2.8024210  16.3346050  24.0284740   3.7569640  29.1839220
  23.9328340   2.8164370  29.0339620  24.8716720   3.9784710  28.7887290
  16.6482560   2.0331890  12.5805800  16.5657230   2.9762650  12.7220790
  16.2965620   1.8906800  11.7018150  28.0103300   4.0916720  23.2423660
  27.2784420   4.6003530  23.5913760  27.6127640   3.2746700  22.9412440
  24.5100840   1.7683000  14.6382910  24.6313660   1.7269480  15.5868730
  24.1249350   2.6307150  14.4829640  23.5222340   4.0784140  14.0366210
  22.9539240   3.6302390  13.4102120  24.2311340   4.4376920  13.5031360
  18.5991520   7.9796160  27.9132940  18.2146310   7.3389830  28.5115900
  18.9103710   8.6832280  28.4827670  24.7488660   4.8272700  23.3941560
  25.1158790   4.3531270  24.1402900  24.5593720   5.7014270  23.7349900
  22.5388030   3.8681340  25.7125770  22.2345100   4.7473320  25.9376130
  23.4934490   3.9281130  25.7483210  21.0669820   8.0742330  16.3092620
  20.2932080   7.5339950  16.1491340  21.7964450   7.5548940  15.9710380
  31.8257800   7.0707690  22.1019010  32.5456920   7.5662980  21.7115120
  31.6239620   6.3925580  21.4572880  27.2076600   7.1416750  27.9888010
  27.1413910   6.2212420  27.7345600  26.5781740   7.2392190  28.7032650
  30.0016130   2.8365300  14.5410560  30.8895750   3.1482530  14.3661900
  29.9721220   1.9637550  14.1491140  21.1107220   7.7422710  19.9471430
  21.6285890   6.9390970  19.8928320  20.6591240   7.6801850  20.7888260
  25.9976720   9.0088990  15.2198730  26.3392420   9.7531220  14.7242050
  25.1689430   9.3220110  15.5823560  18.5951760   4.7084080  26.8597130
  18.2366700   5.3737930  27.4470470  18.3006320   3.8767630  27.2309750
  21.7964880   5.1668320  29.7436680  21.4965020   5.3125500  28.8464500
  22.5676120   4.6073610  29.6510070  27.1393330   9.9637320  27.7391810
  27.1537870   9.0318280  27.5210720  26.4318430  10.0497080  28.3781580
  32.2730400   4.1477140  14.0090420  32.1894120   4.5791360  13.1586860
  32.9924590   4.6075490  14.4417240  33.3504540   6.6044660  27.0860390
  32.6252730   7.1973440  26.8889780  33.8780000   6.5968200  26.2873760
  33.3017650  11.0019400  16.7372550  32.6593810  10.3475020  17.0116270
  32.9148310  11.4074490  15.9613220  28.8804130   8.3304830  20.5844240
  29.2327950   7.7332960  19.9245610  27.9966460   8.0049060  20.7552490
  24.9667410   9.0902520  17.9914650  25.6538540   9.6371730  18.3722240
  24.1799830   9.6343250  18.0264260  17.1059810   4.7075340  13.4831730
  17.9754660   4.9900140  13.7667650  16.6150130   5.5211210  13.3680540
  24.2694620   6.0948550  17.6040010  24.7257400   6.9053800  17.8300200
  23.9182830   5.7771690  18.4358500  26.5727230  11.6054890  24.8332310
  27.2169450  11.8114270  25.5105730  26.9356670  10.8443290  24.3803160
  27.8459310   9.6087240  23.5509760  28.4881540   8.9080400  23.6641930
  28.3708660  10.3885680  23.3706650  31.6915030   9.8935860  13.2748900
  31.4652610   9.1766300  13.8673540  31.3011230   9.6448300  12.4370650
  29.6196930  10.4082140  26.7545820  29.9553170  10.9948830  27.4323740
  28.6997270  10.2774850  26.9843610  17.4731060  13.9202720  14.0493360
  17.8328700  14.5192060  13.3950630  17.3323400  14.4662610  14.8228390
  31.2731280   7.8107800  14.9363060  30.9852980   8.2720490  15.7240940
  32.0683450   7.3505570  15.2047280  17.4572920  12.1857580  28.5235760
  17.5664040  11.2452320  28.3831150  16.8053480  12.4512330  27.8749490
  25.4485510  10.4573470  29.9233880  25.1282380   9.7382710  30.4679570
  24.7743870  11.1328540  29.9969940  23.4899680  11.3033920  14.8667030
  23.4809780  12.0363610  14.2511540  22.5698040  11.0565500  14.9593990
  19.0906320   6.5248810  15.6113790  18.4834270   7.2647710  15.6209090
  19.5655670   6.6148170  14.7851990  26.4759280  11.3662160  13.5292220
  26.5771260  11.1626150  12.5994200  25.5761020  11.1120440  13.7340000
  25.6241100   3.3439220  25.5108650  26.1226350   3.8185040  26.1760500
  25.7664050   2.4202740  25.7178680  25.1177390  13.8848480  18.2239890
  25.3718890  13.8469870  17.3019260  24.1689870  13.7581810  18.2168140
  31.1229970   4.8040360  19.7998400  30.1820110   4.8190590  19.9746090
  31.4374040   4.0176320  20.2458700  21.1011610   6.4859960  13.3602360
  21.8674880   6.3741320  13.9227790  21.1786300   5.7897930  12.7079130
  19.7958370   3.9185030  14.0435250  19.8761960   2.9712540  14.1552650
  20.6878120   4.2491910  14.1495910  33.1255550  11.9749210  21.4752660
  33.2502970  12.7980380  21.9476470  33.9921110  11.7639940  21.1276810
  20.5973080  14.0680420  21.1469790  21.3335560  13.5195880  21.4178360
  20.9814000  14.9336430  21.0075780  17.4818560  10.1353990  17.0211300
  16.5558340  10.3775130  17.0116710  17.9474990  10.9628250  16.8996050
  19.6031360  13.2526490  30.3355370  20.4044090  13.5738540  30.7490770
  19.0883180  12.8922070  31.0575280  23.7075390  13.2410730  12.9695360
  24.5004000  13.5299560  12.5177150  23.1879740  12.8102900  12.2907840
  28.4395990   9.3606360  30.2830780  27.8334150   9.3837960  29.5426530
  28.1350100   8.6289400  30.8198030  29.8696360  13.0886650  28.8940190
  30.8218110  13.0044670  28.8440430  29.7224580  13.7528360  29.5673980
  32.7605560  12.4680860  14.3932100  32.4747070  12.0546000  13.5786280
  32.5625110  13.3968570  14.2732620  17.3229170   5.7399950  29.2791420
  17.8268190   5.1607230  29.8507650  16.5836590   6.0240180  29.8167790
  24.2252790   8.4614140  12.8337710  24.1203430   7.8466490  13.5599090
  24.0577010   7.9380030  12.0500720  24.3767110   7.1470940  28.8126940
  23.6112780   7.7155940  28.7281610  24.5583070   6.8547150  27.9195170
  27.4655520   7.5234170  13.4379700  26.9165620   7.9703470  14.0822440
  28.0874780   7.0183420  13.9617370  31.5190460   8.8776270  29.3701960
  32.2599930   9.2152030  28.8669420  30.7563140   9.0468330  28.8171730
  19.3552250   3.8829540  30.1741490  19.3957590   3.5843410  31.0826720
  20.2097750   4.2837150  30.0149010  23.1330640   6.4825090  15.3345000
  23.5547060   6.3164960  16.1776390  23.2581480   5.6725320  14.8400140
  21.2958060   2.4621640  28.1415980  20.7654520   1.9712590  27.5139320
  21.9646130   2.8905840  27.6073910  25.6458280   5.5062700  12.5822100
  26.1663940   4.7911720  12.2163250  26.2926680   6.1448570  12.8822610
  30.1936120   6.9291100  27.9057170  30.6077140   7.0836180  28.7547590
  29.2587120   7.0546320  28.0682950  30.6658290   4.2687260  29.9096320
  31.2479060   3.5139580  29.8216800  30.8420060   4.7994700  29.1327800
  24.9551350   6.8811580  25.8753100  25.3739460   7.7244310  25.7029340
  24.0359980   7.0183620  25.6459880  27.2915250   4.6127760  27.2590940
  27.4111460   4.0168900  27.9985780  28.1509250   4.6497450  26.8392240
  29.6303150   5.1664950  25.8353450  29.1038370   5.6907570  25.2318590
  29.9734490   5.7992340  26.4663180  22.0289540   2.5558320  12.2803160
  21.8278600   1.6925680  12.6416500  21.8581590   2.4691680  11.3424760
  22.8058770  13.1864590  26.9910830  22.2679860  13.9110650  26.6719530
  23.0592730  12.7094930  26.2008170  25.6620980  14.4215800  27.2497480
  25.5879680  15.3250940  27.5569850  24.7599820  14.1027700  27.2219550
  26.2106310  13.5874310  14.8723840  27.1057100  13.9259280  14.8942600
  26.2423940  12.8653720  14.2448120  19.8502470   8.9601360  13.1010840
  20.2877340   9.5031030  13.7568420  20.3350200   8.1348310  13.1107180
  17.0648270  11.7490390  20.5531100  17.3951280  10.8811450  20.3209740
  17.4939270  11.9548910  21.3836060  21.6610190  10.0799400  18.2133070
  21.3605730   9.9564370  19.1136980  21.5547680   9.2207990  17.8048800
  17.5538480  12.6160980  23.2912730  17.1169470  12.7961780  24.1236880
  18.1216160  13.3735600  23.1494450  33.1900660  12.1177980  27.5790040
  32.5902650  12.1770540  26.8353960  33.3194560  11.1782960  27.7086890
  34.4302110   9.8595800  12.9159750  33.5995070   9.9272450  13.3866980
  34.6073940  10.7499920  12.6126610  33.8858570   6.6043280  15.4193950
  34.6477480   7.1739930  15.5253640  33.9012940   6.0370480  16.1902260
  17.3862910   5.1281210  19.6501610  16.7311750   4.8592850  19.0061310
  18.2240860   5.0185690  19.2003590  34.8918540   7.4593380  20.2635880
  35.2627370   6.6760700  19.8571850  35.5320470   8.1482480  20.0853180
  31.8752300   8.8429960  25.6766200  31.0612140   9.2727120  25.9391990
  32.2826500   9.4548370  25.0635250  33.9377740   6.8977650  12.5766470
  34.2126580   7.8056530  12.4485690  33.7488480   6.8340180  13.5128460
  33.8343080   4.8346640  17.5695900  33.4586680   4.0674570  17.1377190
  33.1046200   5.2169340  18.0570830  18.4238840   5.5133780  24.1904950
  18.7911880   5.4261180  25.0700970  17.8549660   4.7500330  24.0911810
  33.2242700   3.9818160  27.2035420  32.9928790   3.7530910  26.3033370
  33.4847250   4.9017710  27.1580310  17.9754840   2.4242870  28.0963370
  17.0810890   2.3909630  28.4357080  18.5152390   2.6229660  28.8614620
  16.6000990   2.3380140  15.5926940  15.6965070   2.6010340  15.4178600
  17.0841610   2.6091310  14.8126900  33.1094040   3.0604130  20.8703140
  33.6331520   2.5666780  20.2393310  33.6953460   3.1954490  21.6150710
  33.2883760   3.1444000  24.3922690  32.3386470   3.1107540  24.5067680
  33.4696770   4.0544110  24.1572460  32.5994010   2.3177480  16.8095550
  33.0953130   2.0848350  17.5944430  32.4010080   1.4789320  16.3933190
  31.9328350  13.5948560  19.2034470  32.5287420  13.2733130  18.5268890
  32.1906500  13.1220380  19.9947740  19.8390920  10.0266470  29.3525100
  19.7960550   9.6559380  30.2339560  19.9701930  10.9644040  29.4926920
  23.5396950  11.5826060  24.9534820  23.2988310  11.8500620  24.0665340
  24.4799590  11.7531790  25.0085680  34.8001110  13.6020440  25.7545460
  34.3059390  13.9989310  25.0372590  34.1914400  12.9769650  26.1482740
  19.6778950  12.9728720  26.4722880  19.0839270  12.8413420  27.2112920
  19.6702790  12.1366860  26.0064980  32.4840560  14.2443860  23.0332200
  32.0243530  14.9959670  22.6590220  31.8553020  13.5250330  22.9747000
  19.3091180  10.3387100  25.4230920  18.5825240   9.7192390  25.3556870
  19.3700330  10.7327710  24.5529000  22.9136280  12.5532100  22.2080330
  23.4301300  11.9419460  21.6828590  23.5633660  13.0560880  22.6991340
  25.6531780  13.4440590  23.0349310  25.9409590  13.1894890  22.1582320
  26.1655000  12.8917950  23.6254880  17.5921180  13.6561490  18.6327680
  17.4243220  13.0232170  19.3309570  16.7255690  13.8620890  18.2821870
  19.1983880  12.3494720  16.0777820  18.6731500  12.7302750  15.3739780
  19.1228460  12.9745490  16.7987530  25.7204140  14.3656690  30.4017510
  26.6471450  14.1300960  30.4453470  25.7054570  15.1928690  29.9203540
  33.9549200  13.9082260  17.3991760  34.1301390  13.2220000  16.7552680
  33.2570770  14.4329310  17.0068430  21.7976850  14.2977100  14.9527070
  22.5295670  14.0136380  14.4050960  22.0570520  14.0590380  15.8426450
  20.9591640  10.4141830  14.9573400  20.3300520  10.8826930  15.5059230
  21.0739470   9.5691050  15.3919590  32.2881700  13.5926550  30.2258550
  33.0807020  13.0975780  30.0184510  32.5814850  14.2716690  30.8334160
  26.5459400   6.2426510   2.9883870  25.7701500   5.7626950   3.2782440
  27.1972330   5.5632160   2.8140030  20.5625230   6.5546320   3.8659630
  19.7310110   6.2995030   4.2656140  21.1706210   6.6257090   4.6017550
  30.5666830  10.6486700   1.7683000  30.1048360   9.8773940   2.0970170
  31.3792380  10.6752770   2.2735450  20.5426490  10.5886410   4.0617650
  20.8454530   9.6984150   3.8827870  21.2870080  11.1456630   3.8339900
  16.9350190   4.1153860   3.5341720  17.5066300   3.3476060   3.5345360
  16.9351730   4.4142620   2.6248330  25.9868390   8.9183700   2.9954030
  25.9176670   7.9773640   2.8343160  26.7488250   9.0085110   3.5676600
  22.9886300   3.0666080   3.0165580  23.4964520   3.5647050   3.6570600
  23.5199540   2.2901280   2.8404940  22.5225250   7.3459820   5.4602500
  22.1894630   7.9728740   6.1023570  22.6991930   7.8721700   4.6804170
  21.7344350   9.3140620   7.2751680  22.3518350   9.9891700   6.9936130
  20.8737470   9.7228600   7.1839180  32.6521940  10.7780030   5.1906320
  31.9685460  11.4479140   5.1822990  33.1916230  10.9760680   4.4251180
  30.1880680  12.6224160   3.9051500  30.2007840  12.2186450   3.0373760
  29.6355900  13.3971450   3.8012930  29.5866120   7.5254000   5.2334110
  30.0034910   7.3114110   4.3987570  30.3105940   7.7826790   5.8042730
  33.5328220   5.9241220   5.3250350  32.7046850   5.9934310   4.8500480
  34.1278700   6.5095530   4.8566180  30.4970230   2.7110540   6.2705220
  30.0841410   3.5364250   6.5245210  29.7646180   2.1255580   6.0781580
  23.0984720   9.1838000   3.2963100  22.8013010   8.5783470   2.6170880
  24.0484540   9.2215310   3.1852460  21.3431640   2.2713650   4.9122930
  21.8946230   2.3808990   4.1376180  21.8575150   2.6451250   5.6278160
  31.1870330  12.7569870   6.9586200  30.7100890  13.5642060   6.7658810
  30.5032120  12.1048200   7.1112410  22.1903150   8.9219690   9.9470900
  21.2931680   9.1459660  10.1944300  22.2156020   9.0454630   8.9982300
  21.0174370   5.7933010   8.5228270  20.8782140   6.6655810   8.8915670
  20.1355730   5.4505820   8.3776210  22.8154720  11.7354710  10.7313420
  22.7870150  12.1397660   9.8641850  22.6519690  10.8065070  10.5685020
  34.7669540  12.5181810  12.0277590  35.2429260  12.9964700  12.7066670
  35.3876700  12.4499300  11.3023090  16.9693020   7.5630560   4.4399180
  17.0473440   7.6979330   3.4954900  17.5834700   6.8546450   4.6327300
  34.1702790   9.7094660   9.1877600  34.2965850   9.4706540   8.2694780
  34.2124170   8.8779200   9.6599680  28.0319530  13.4122660   7.7572410
  28.5464200  13.3230670   8.5594840  27.1888610  13.7582360   8.0500320
  17.0252540   8.6044730   6.9793640  17.1883580   8.1350090   6.1613010
  17.4904990   8.0968290   7.6442480  31.0845630   1.8227960   8.7486190
  30.2339220   1.5233710   9.0695260  30.9247420   2.0669970   7.8370010
  28.1795340   3.3229710  10.8484980  28.5048750   2.4893460  10.5087210
  28.9675670   3.8458230  10.9963310  24.0284740   3.7569640  10.4095730
  23.9328340   2.8164370  10.2596130  24.8716720   3.9784710  10.0143800
  28.0103300   4.0916720   4.4680170  27.2784420   4.6003530   4.8170270
  27.6127640   3.2746700   4.1668950  18.5991520   7.9796160   9.1389450
  18.2146310   7.3389830   9.7372410  18.9103710   8.6832280   9.7084180
  24.7488660   4.8272700   4.6198070  25.1158790   4.3531270   5.3659410
  24.5593720   5.7014270   4.9606410  22.5388030   3.8681340   6.9382280
  22.2345100   4.7473320   7.1632640  23.4934490   3.9281130   6.9739720
  31.8257800   7.0707690   3.3275520  32.5456920   7.5662980   2.9371630
  31.6239620   6.3925580   2.6829390  27.2076600   7.1416750   9.2144520
  27.1413910   6.2212420   8.9602110  26.5781740   7.2392190   9.9289160
  18.5951760   4.7084080   8.0853640  18.2366700   5.3737930   8.6726980
  18.3006320   3.8767630   8.4566260  21.7964880   5.1668320  10.9693190
  21.4965020   5.3125500  10.0721010  22.5676120   4.6073610  10.8766580
  27.1393330   9.9637320   8.9648320  27.1537870   9.0318280   8.7467230
  26.4318430  10.0497080   9.6038090  33.3504540   6.6044660   8.3116900
  32.6252730   7.1973440   8.1146290  33.8780000   6.5968200   7.5130270
  26.5727230  11.6054890   6.0588820  27.2169450  11.8114270   6.7362240
  26.9356670  10.8443290   5.6059670  27.8459310   9.6087240   4.7766270
  28.4881540   8.9080400   4.8898440  28.3708660  10.3885680   4.5963160
  29.6196930  10.4082140   7.9802330  29.9553170  10.9948830   8.6580250
  28.6997270  10.2774850   8.2100120  17.4572920  12.1857580   9.7492270
  17.5664040  11.2452320   9.6087660  16.8053480  12.4512330   9.1006000
  25.4485510  10.4573470  11.1490390  25.1282380   9.7382710  11.6936080
  24.7743870  11.1328540  11.2226450  25.6241100   3.3439220   6.7365160
  26.1226350   3.8185040   7.4017010  25.7664050   2.4202740   6.9435190
  33.1255550  11.9749210   2.7009170  33.2502970  12.7980380   3.1732980
  33.9921110  11.7639940   2.3533320  20.5973080  14.0680420   2.3726300
  21.3335560  13.5195880   2.6434870  20.9814000  14.9336430   2.2332290
  19.6031360  13.2526490  11.5611880  20.4044090  13.5738540  11.9747280
  19.0883180  12.8922070  12.2831790  28.4395990   9.3606360  11.5087290
  27.8334150   9.3837960  10.7683040  28.1350100   8.6289400  12.0454540
  29.8696360  13.0886650  10.1196700  30.8218110  13.0044670  10.0696940
  29.7224580  13.7528360  10.7930490  17.3229170   5.7399950  10.5047930
  17.8268190   5.1607230  11.0764160  16.5836590   6.0240180  11.0424300
  24.3767110   7.1470940  10.0383450  23.6112780   7.7155940   9.9538120
  24.5583070   6.8547150   9.1451680  31.5190460   8.8776270  10.5958470
  32.2599930   9.2152030  10.0925930  30.7563140   9.0468330  10.0428240
  19.3552250   3.8829540  11.3998000  19.3957590   3.5843410  12.3083230
  20.2097750   4.2837150  11.2405520  21.2958060   2.4621640   9.3672490
  20.7654520   1.9712590   8.7395830  21.9646130   2.8905840   8.8330420
  30.1936120   6.9291100   9.1313680  30.6077140   7.0836180   9.9804100
  29.2587120   7.0546320   9.2939460  30.6658290   4.2687260  11.1352830
  31.2479060   3.5139580  11.0473310  30.8420060   4.7994700  10.3584310
  24.9551350   6.8811580   7.1009610  25.3739460   7.7244310   6.9285850
  24.0359980   7.0183620   6.8716390  27.2915250   4.6127760   8.4847450
  27.4111460   4.0168900   9.2242290  28.1509250   4.6497450   8.0648750
  29.6303150   5.1664950   7.0609960  29.1038370   5.6907570   6.4575100
  29.9734490   5.7992340   7.6919690  22.8058770  13.1864590   8.2167340
  22.2679860  13.9110650   7.8976040  23.0592730  12.7094930   7.4264680
  25.6620980  14.4215800   8.4753990  25.5879680  15.3250940   8.7826360
  24.7599820  14.1027700   8.4476060  17.5538480  12.6160980   4.5169240
  17.1169470  12.7961780   5.3493390  18.1216160  13.3735600   4.3750960
  33.1900660  12.1177980   8.8046550  32.5902650  12.1770540   8.0610470
  33.3194560  11.1782960   8.9343400  31.8752300   8.8429960   6.9022710
  31.0612140   9.2727120   7.1648500  32.2826500   9.4548370   6.2891760
  18.4238840   5.5133780   5.4161460  18.7911880   5.4261180   6.2957480
  17.8549660   4.7500330   5.3168320  33.2242700   3.9818160   8.4291930
  32.9928790   3.7530910   7.5289880  33.4847250   4.9017710   8.3836820
  17.9754840   2.4242870   9.3219880  17.0810890   2.3909630   9.6613590
  18.5152390   2.6229660  10.0871130  33.2883760   3.1444000   5.6179200
  32.3386470   3.1107540   5.7324190  33.4696770   4.0544110   5.3828970
  19.8390920  10.0266470  10.5781610  19.7960550   9.6559380  11.4596070
  19.9701930  10.9644040  10.7183430  23.5396950  11.5826060   6.1791330
  23.2988310  11.8500620   5.2921850  24.4799590  11.7531790   6.2342190
  34.8001110  13.6020440   6.9801970  34.3059390  13.9989310   6.2629100
  34.1914400  12.9769650   7.3739250  19.6778950  12.9728720   7.6979390
  19.0839270  12.8413420   8.4369430  19.6702790  12.1366860   7.2321490
  32.4840560  14.2443860   4.2588710  32.0243530  14.9959670   3.8846730
  31.8553020  13.5250330   4.2003510  19.3091180  10.3387100   6.6487430
  18.5825240   9.7192390   6.5813380  19.3700330  10.7327710   5.7785510
  22.9136280  12.5532100   3.4336840  23.4301300  11.9419460   2.9085100
  23.5633660  13.0560880   3.9247850  25.6531780  13.4440590   4.2605820
  25.9409590  13.1894890   3.3838830  26.1655000  12.8917950   4.8511390
  25.7204140  14.3656690  11.6274020  26.6471450  14.1300960  11.6709980
  25.7054570  15.1928690  11.1460050  32.2881700  13.5926550  11.4515060
  33.0807020  13.0975780  11.2441020  32.5814850  14.2716690  12.0590670
   9.6397870  79.5621450  76.2048560   9.5591920  78.6476060  75.9340270
   9.2262290  80.0588520  75.4988270   7.7715910  81.3400470  78.0857830
   6.9958010  80.8600910  78.3756400   8.4228840  80.6606120  77.9113990
   7.2124900  84.0157660  78.0927990   7.1433180  83.0747600  77.9317120
   7.9744760  84.1059070  78.6650560   8.2430070  76.8228040  78.3196920
   8.6194890  75.9499920  78.2070590   8.1449580  77.1586740  77.4287360
   2.3735080  75.1953670  73.7814360   2.4801830  76.0957400  74.0883120
   1.4627440  75.1471640  73.4909010  12.0254190  74.3178480  75.2525260
  12.8463810  73.8275050  75.2950740  12.0588270  74.9076140  76.0057100
   4.2142810  78.1640040  78.1139540   4.7221030  78.6621010  78.7544560
   4.7456050  77.3875240  77.9378900   8.8850000  82.9157910  73.8792860
   8.2667270  83.3807360  73.3155580   9.3973250  83.6085390  74.2962370
  12.2615670  76.2578860  78.0252800  11.5571240  76.5463750  78.6055910
  12.6227830  77.0678970  77.6652360  15.3302590  75.7033650  78.4162010
  14.3827500  75.7372630  78.5477440  15.6552580  76.5172600  78.8011370
   5.8622130  72.0030830  76.7118000   6.1697110  71.4477720  75.9953500
   4.9322830  72.1375290  76.5290990   8.2502890  80.0679660  73.4478120
   7.3232170  80.0017040  73.6766590   8.4027710  81.0059790  73.3333360
   8.2371970  76.3396660  70.4445280   7.2975640  76.5010620  70.5297740
   8.5555230  77.0582340  69.8981270  12.2800180  81.6299960  73.9513370
  11.6612600  81.2919510  73.3039670  12.2624630  80.9859720  74.6592560
   3.8559530  80.5944400  76.2297850   3.4516530  79.8821650  75.7343750
   3.9422650  80.2497640  77.1185890  10.4564880  80.8686770  70.9586120
  10.8958160  80.0309200  70.8123940  11.1693300  81.5016170  71.0450260
  14.0382020  72.1229580  69.2727160  13.7254680  72.2156410  70.1726230
  14.7994490  72.7010610  69.2224590   3.0227820  72.8324450  77.1128170
   2.5795970  73.6133990  76.7812690   3.5812810  73.1554340  77.8199110
   6.1386640  72.4535150  71.9934000   5.5140820  72.4495020  72.7187310
   6.0516760  71.5866110  71.5969970   2.8142040  77.9558020  74.8409420
   2.5882960  77.7395190  75.7456040   2.0334570  78.3886480  74.4955390
  10.0439800  77.9621390  73.4400070   9.4448690  78.6857190  73.2563690
  10.5919410  77.8998170  72.6576520   8.6504670  76.5984930  75.4703350
   9.0434240  76.9157130  74.6572040   9.0121520  75.7196810  75.5847870
   5.6737200  75.8644880  77.9706620   5.6773260  75.4234830  77.1211160
   6.5688320  76.1862210  78.0778440   5.7357350  76.8656960  70.9613380
   5.8570170  76.8243440  71.9099200   5.3505860  77.7281110  70.8060110
   4.7478850  79.1758100  70.3596680   4.1795750  78.7276350  69.7332590
   5.4567850  79.5350880  69.8261830   2.2926330  83.1716290  72.6323090
   1.5188590  82.6313910  72.4721810   3.0220960  82.6522900  72.2940850
  13.0514310  82.1681650  78.4249480  13.7713430  82.6636940  78.0345590
  12.8496130  81.4899540  77.7803350   8.5124250  73.5619610  72.5678870
   7.6988860  73.0632780  72.4924180   8.3186200  74.4017860  72.1515220
  11.2272640  77.9339260  70.8641030  12.1152260  78.2456490  70.6892370
  11.1977730  77.0611510  70.4721610   2.3363730  82.8396670  76.2701900
   2.8542400  82.0364930  76.2158790   1.8847750  82.7775810  77.1118730
  13.4986910  79.2451100  70.3320890  13.4150630  79.6765320  69.4817330
  14.2181100  79.7049450  70.7647710  10.1060640  83.4278790  76.9074710
  10.4584460  82.8306920  76.2476080   9.2222970  83.1023020  77.0782960
   5.4951130  81.1922510  73.9270480   5.9513910  82.0027760  74.1530670
   5.1439340  80.8745650  74.7588970  12.4987790  82.9081760  71.2593530
  12.2109490  83.3694450  72.0471410  13.2939960  82.4479530  71.5277750
  13.2557650  74.7430530  72.4188710  12.6270810  74.8476200  71.7046940
  12.7609570  74.9627310  73.2082590   5.2241680  77.0216480  73.8346590
   4.5157830  77.4902820  74.2760200   5.5086160  76.3638490  74.4691780
   9.2557110  73.7467140  75.2742380   9.1324890  73.7653270  74.3251890
  10.2041670  73.7946080  75.3940780   3.4276700  75.3301560  71.2097300
   4.2767230  75.7671710  71.1437490   3.0607970  75.6421820  72.0369360
  12.3486480  79.9014320  76.1228870  11.4076620  79.9164550  76.2976560
  12.6630550  79.1150280  76.5689170   2.3268120  81.5833920  69.6832830
   3.0931390  81.4715280  70.2458260   2.4042810  80.8871890  69.0309600
   5.4509300  83.5588100  69.1568180   5.3459940  82.9440450  69.8829560
   5.2833520  83.0353990  68.3731190   8.6912030  82.6208130  69.7610170
   8.1422130  83.0677430  70.4052910   9.3131290  82.1157380  70.2847840
   4.3587150  81.5799050  71.6575470   4.7803570  81.4138920  72.5006860
   4.4837990  80.7699280  71.1630610   6.8714790  80.6036660  68.9052570
   7.3920450  79.8885680  68.5393720   7.5183190  81.2422530  69.2053080
   3.2546050  77.6532280  68.6033630   3.0535110  76.7899640  68.9646970
   3.0838100  77.5665640  67.6655230  10.7334360  72.4640510  71.1320510
  11.0136650  71.6208410  71.4879930   9.9600090  72.6963620  71.6459260
   2.0528850  74.7532900  68.5911510   2.3554750  74.7600330  67.6830660
   2.7923440  74.4030760  69.0879170   5.2713780  73.6967520  69.5767710
   4.9235780  73.0191510  68.9970160   5.4726550  73.2357030  70.3911100
  15.1115080  81.7017240  71.7424420  15.8733990  82.2713890  71.8484110
  15.1269450  81.1344440  72.5132730  16.1175050  82.5567340  76.5866350
  16.4883880  81.7734660  76.1802320  16.7576980  83.2456440  76.4083650
  15.1634250  81.9951610  68.8996940  15.4383090  82.9030490  68.7716160
  14.9744990  81.9314140  69.8358930  11.5609860  75.0196460  70.1950570
  11.9794740  74.8327440  69.3547230  11.2545920  74.1675510  70.5053500
  15.0599590  79.9320600  73.8926370  14.6843190  79.1648530  73.4607660
  14.3302710  80.3143300  74.3801300  14.3350550  78.1578090  77.1933610
  14.8588030  77.6640740  76.5623780  14.9209970  78.2928450  77.9381180
  13.8250520  77.4151440  73.1326020  14.3209640  77.1822310  73.9174900
  13.6266590  76.5763280  72.7163660  15.2537680  76.0512390  75.6663700
  15.1436960  75.8968430  76.6045970  16.0145270  75.5233330  75.4239110
  16.1427950  73.8820310  68.9069840  17.0677260  73.7501490  68.6988130
  16.1203740  73.9613130  69.8606290  16.2166440  74.6530970  71.5326550
  15.4217940  74.5876090  72.0619460  16.4209720  75.5881610  71.5211900
  12.6486370  72.9827850  77.9825380  13.0894460  72.9272950  77.1346980
  12.3793960  73.8985860  78.0535560  14.5124940  72.6143090  75.9934200
  14.4513340  71.6704310  75.8465220  15.2916970  72.7223180  76.5387660
   5.9819520  74.6991500  75.4492320   5.1694030  74.3248390  75.1088200
   6.4861160  73.9436580  75.7513510  10.4844500  71.3633950  76.6875390
  11.0873870  71.9354160  77.1623910   9.7437490  71.9273390  76.4649290
  13.6279100  71.7655510  71.9615670  13.8229730  72.6638960  72.2283100
  12.8408970  71.5342590  72.4548620   1.8130860  73.1116280  70.9991980
   2.3423620  72.3246080  70.8699930   2.4459180  73.7907470  71.2327510
   4.0068700  72.8491420  74.0537370   3.3771440  72.1478730  74.2207500
   3.4673840  73.6095550  73.8370530   9.6397870  79.5621450  57.4305070
   9.5591920  78.6476060  57.1596780   9.2262290  80.0588520  56.7244780
   7.7715910  81.3400470  59.3114340   6.9958010  80.8600910  59.6012910
   8.4228840  80.6606120  59.1370500   7.2124900  84.0157660  59.3184500
   7.1433180  83.0747600  59.1573630   7.9744760  84.1059070  59.8907070
   8.2430070  76.8228040  59.5453430   8.6194890  75.9499920  59.4327100
   8.1449580  77.1586740  58.6543870   2.3735080  75.1953670  55.0070870
   2.4801830  76.0957400  55.3139630   1.4627440  75.1471640  54.7165520
  12.0254190  74.3178480  56.4781770  12.8463810  73.8275050  56.5207250
  12.0588270  74.9076140  57.2313610   4.2142810  78.1640040  59.3396050
   4.7221030  78.6621010  59.9801070   4.7456050  77.3875240  59.1635410
  16.3153740  76.3345230  63.0425400  15.6105910  76.7226940  62.5240510
  16.5811660  77.0295520  63.6446330   2.4978910  72.8038600  63.6059470
   2.4997350  73.3210990  62.8005370   1.6683220  72.3268780  63.5829400
   8.8850000  82.9157910  55.1049370   8.2667270  83.3807360  54.5412090
   9.3973250  83.6085390  55.5218880   3.7481760  82.4433780  61.7832970
   3.4151140  83.0702700  62.4254040   3.9248440  82.9695660  61.0034640
  12.2615670  76.2578860  59.2509310  11.5571240  76.5463750  59.8312420
  12.6227830  77.0678970  58.8908870  15.3302590  75.7033650  59.6418520
  14.3827500  75.7372630  59.7733950  15.6552580  76.5172600  60.0267880
   5.8622130  72.0030830  57.9374510   6.1697110  71.4477720  57.2210010
   4.9322830  72.1375290  57.7547500  10.8122630  82.6227960  61.5564580
  11.2291420  82.4088070  60.7218040  11.5362450  82.8800750  62.1273200
   8.2502890  80.0679660  54.6734630   7.3232170  80.0017040  54.9023100
   8.4027710  81.0059790  54.5589870   8.2371970  76.3396660  51.6701790
   7.2975640  76.5010620  51.7554250   8.5555230  77.0582340  51.1237780
  14.7584730  81.0215180  61.6480820  13.9303360  81.0908270  61.1730950
  15.3535210  81.6069490  61.1796650  12.2800180  81.6299960  55.1769880
  11.6612600  81.2919510  54.5296180  12.2624630  80.9859720  55.8849070
  11.7226740  77.8084500  62.5935690  11.3097920  78.6338210  62.8475680
  10.9902690  77.2229540  62.4012050   3.8559530  80.5944400  57.4554360
   3.4516530  79.8821650  56.9600260   3.9422650  80.2497640  58.3442400
   2.5688150  77.3687610  61.2353400   3.1202740  77.4782950  60.4606650
   3.0831660  77.7425210  61.9508630  10.4564880  80.8686770  52.1842630
  10.8958160  80.0309200  52.0380450  11.1693300  81.5016170  52.2706770
  14.0382020  72.1229580  50.4983670  13.7254680  72.2156410  51.3982740
  14.7994490  72.7010610  50.4481100  15.2483310  76.8601080  66.4757810
  14.6327580  77.3680750  65.9473270  14.9279730  75.9599410  66.4183750
   3.0227820  72.8324450  58.3384680   2.5795970  73.6133990  58.0069200
   3.5812810  73.1554340  59.0455620   7.3097630  75.6992970  63.9420000
   6.8477000  75.9075990  64.7539940   6.9075740  74.8852320  63.6390670
  12.3102140  76.9201920  65.0716660  11.4595730  76.6207670  65.3925730
  12.1503930  77.1643930  64.1600480   9.4051850  78.4203670  67.1715450
   9.7305260  77.5867420  66.8317680  10.1932180  78.9432190  67.3193780
   6.1386640  72.4535150  53.2190510   5.5140820  72.4495020  53.9443820
   6.0516760  71.5866110  52.8226480   5.0603720  73.3771780  60.1974280
   5.3576050  74.2834610  60.1166300   5.6089280  72.8890560  59.5833850
   2.8142040  77.9558020  56.0665930   2.5882960  77.7395190  56.9712550
   2.0334570  78.3886480  55.7211900  10.0439800  77.9621390  54.6656580
   9.4448690  78.6857190  54.4820200  10.5919410  77.8998170  53.8833030
   5.2541250  78.8543600  66.7326200   5.1584850  77.9138330  66.5826600
   6.0973230  79.0758670  66.3374270   8.6504670  76.5984930  56.6959860
   9.0434240  76.9157130  55.8828550   9.0121520  75.7196810  56.8104380
   6.9596840  75.3492240  67.9556720   6.2695160  75.1564440  68.5902810
   7.7029140  75.6326880  68.4881020   9.2359810  79.1890680  60.7910640
   8.5040930  79.6977490  61.1400740   8.8384150  78.3720660  60.4899420
   5.6737200  75.8644880  59.1963130   5.6773260  75.4234830  58.3467670
   6.5688320  76.1862210  59.3034950   5.7357350  76.8656960  52.1869890
   5.8570170  76.8243440  53.1355710   5.3505860  77.7281110  52.0316620
   9.6985720  74.6424360  60.2033580   9.7158460  75.0933010  61.0475430
   9.4501300  73.7430000  60.4167020   4.7478850  79.1758100  51.5853190
   4.1795750  78.7276350  50.9589100   5.4567850  79.5350880  51.0518340
  13.1256470  72.0556540  66.0419960  13.4502240  71.3246200  66.5677940
  13.1612980  71.7370180  65.1400950   5.9745170  79.9246660  60.9428540
   6.3415300  79.4505230  61.6889880   5.7850230  80.7988230  61.2836880
   3.7644540  78.9655300  63.2612750   3.4601610  79.8447280  63.4863110
   4.7191000  79.0255090  63.2970190   2.2926330  83.1716290  53.8579600
   1.5188590  82.6313910  53.6978320   3.0220960  82.6522900  53.5197360
  13.0514310  82.1681650  59.6505990  13.7713430  82.6636940  59.2602100
  12.8496130  81.4899540  59.0059860   8.5124250  73.5619610  53.7935380
   7.6988860  73.0632780  53.7180690   8.3186200  74.4017860  53.3771730
   8.4333110  82.2390710  65.5374990   8.3670420  81.3186380  65.2832580
   7.8038250  82.3366150  66.2519630  11.2272640  77.9339260  52.0897540
  12.1152260  78.2456490  51.9148880  11.1977730  77.0611510  51.6978120
   2.3363730  82.8396670  57.4958410   2.8542400  82.0364930  57.4415300
   1.8847750  82.7775810  58.3375240   3.0221390  80.2642280  67.2923660
   2.7221530  80.4099460  66.3951480   3.7932630  79.7047570  67.1997050
  13.4986910  79.2451100  51.5577400  13.4150630  79.6765320  50.7073840
  14.2181100  79.7049450  51.9904220  14.5761050  81.7018620  64.6347370
  13.8509240  82.2947400  64.4376760  15.1036510  81.6942160  63.8360740
  10.1060640  83.4278790  58.1331220  10.4584460  82.8306920  57.4732590
   9.2222970  83.1023020  58.3039470   5.4951130  81.1922510  55.1526990
   5.9513910  82.0027760  55.3787180   5.1439340  80.8745650  55.9845480
  12.4987790  82.9081760  52.4850040  12.2109490  83.3694450  53.2727920
  13.2939960  82.4479530  52.7534260   9.8895620  75.7873590  62.8357660
  10.2576440  74.9668800  63.1637230   9.0293820  75.8475480  63.2513310
  13.2557650  74.7430530  53.6445220  12.6270810  74.8476200  52.9303450
  12.7609570  74.9627310  54.4339100   5.2241680  77.0216480  55.0603100
   4.5157830  77.4902820  55.5016710   5.5086160  76.3638490  55.6948290
   6.8497610  78.4413180  63.0595630   7.3482860  78.9159000  63.7247480
   6.9920560  77.5176700  63.2665660   9.2557110  73.7467140  56.4998890
   9.1324890  73.7653270  55.5508400  10.2041670  73.7946080  56.6197290
   3.4276700  75.3301560  52.4353810   4.2767230  75.7671710  52.3694000
   3.0607970  75.6421820  53.2625870  14.0564470  74.6581140  63.9024020
  13.5538070  75.3986540  64.2417830  14.8721130  75.0465140  63.5860810
  12.3486480  79.9014320  57.3485380  11.4076620  79.9164550  57.5233070
  12.6630550  79.1150280  57.7945680   2.3268120  81.5833920  50.9089340
   3.0931390  81.4715280  51.4714770   2.4042810  80.8871890  50.2566110
   5.4509300  83.5588100  50.3824690   5.3459940  82.9440450  51.1086070
   5.2833520  83.0353990  49.5987700   5.6023620  82.2444900  66.3613920
   4.8369290  82.8129900  66.2768590   5.7839580  81.9521110  65.4682150
   8.6912030  82.6208130  50.9866680   8.1422130  83.0677430  51.6309420
   9.3131290  82.1157380  51.5104350   4.3587150  81.5799050  52.8831980
   4.7803570  81.4138920  53.7263370   4.4837990  80.7699280  52.3887120
   2.5214570  77.5595600  65.6902960   1.9911030  77.0686550  65.0626300
   3.1902640  77.9879800  65.1560890   6.8714790  80.6036660  50.1309080
   7.3920450  79.8885680  49.7650230   7.5183190  81.2422530  50.4309590
  11.4192630  82.0265060  65.4544150  11.8333650  82.1810140  66.3034570
  10.4843630  82.1520280  65.6169930  11.8914800  79.3661220  67.4583300
  12.4735570  78.6113540  67.3703780  12.0676570  79.8968660  66.6814780
   3.0086870  74.5257970  65.7700250   2.9143740  73.9078720  65.0451120
   2.4284260  75.2524260  65.5430160   5.7748310  73.0831210  62.8027640
   5.3265610  73.1055470  61.9573190   5.1413510  72.6850230  63.3997940
   6.1807860  81.9785540  63.4240080   6.5995970  82.8218270  63.2516320
   5.2616490  82.1157580  63.1946860   8.5171760  79.7101720  64.8077920
   8.6367970  79.1142860  65.5472760   9.3765760  79.7471410  64.3879220
  10.8559660  80.2638910  63.3840430  10.3294880  80.7881530  62.7805570
  11.1991000  80.8966300  64.0150160   3.2546050  77.6532280  49.8290140
   3.0535110  76.7899640  50.1903480   3.0838100  77.5665640  48.8911740
   5.2840530  76.2523070  66.0653740   5.8740220  75.9438920  66.7531560
   4.4660770  75.7802820  66.2213640  10.1033960  75.8688880  66.2986760
   9.4149480  75.2070420  66.2336750  10.8239980  75.4227150  66.7435220
  10.7334360  72.4640510  52.3577020  11.0136650  71.6208410  52.7136440
   9.9600090  72.6963620  52.8715770   2.0528850  74.7532900  49.8168020
   2.3554750  74.7600330  48.9087170   2.7923440  74.4030760  50.3135680
   5.2713780  73.6967520  50.8024220   4.9235780  73.0191510  50.2226670
   5.4726550  73.2357030  51.6167610  15.1115080  81.7017240  52.9680930
  15.8733990  82.2713890  53.0740620  15.1269450  81.1344440  53.7389240
  16.1175050  82.5567340  57.8122860  16.4883880  81.7734660  57.4058830
  16.7576980  83.2456440  57.6340160  15.1634250  81.9951610  50.1253450
  15.4383090  82.9030490  49.9972670  14.9744990  81.9314140  51.0615440
  11.5609860  75.0196460  51.4207080  11.9794740  74.8327440  50.5803740
  11.2545920  74.1675510  51.7310010  15.0599590  79.9320600  55.1182880
  14.6843190  79.1648530  54.6864170  14.3302710  80.3143300  55.6057810
  14.4499210  79.0792120  64.7522400  14.2185300  78.8504870  63.8520350
  14.7103760  79.9991670  64.7067290  12.8887280  74.3048550  67.5302100
  13.7657460  74.3131950  67.9136100  12.9008120  73.5679390  66.9194450
  14.3350550  78.1578090  58.4190120  14.8588030  77.6640740  57.7880290
  14.9209970  78.2928450  59.1637690  14.5140270  78.2417960  61.9409670
  13.5642980  78.2081500  62.0554660  14.6953280  79.1518070  61.7059440
  13.8250520  77.4151440  54.3582530  14.3209640  77.1822310  55.1431410
  13.6266590  76.5763280  53.9420170  15.2537680  76.0512390  56.8920210
  15.1436960  75.8968430  57.8302480  16.0145270  75.5233330  56.6495620
  13.6003400  71.9906520  63.3503210  14.2375620  72.6040660  63.7162400
  13.7478290  72.0267180  62.4052440  16.1427950  73.8820310  50.1326350
  17.0677260  73.7501490  49.9244640  16.1203740  73.9613130  51.0862800
  16.2166440  74.6530970  52.7583060  15.4217940  74.5876090  53.2875970
  16.4209720  75.5881610  52.7468410   6.9707880  73.1432710  66.2578310
   6.9096770  73.7354540  67.0073720   7.9108260  73.0358670  66.1128570
   9.6082440  72.8002770  65.8970600  10.2222850  73.1182060  65.2351680
  10.1532000  72.3151360  66.5166460  10.3490480  71.3634910  62.2239890
   9.4750320  71.6970020  62.0212820  10.2401230  70.8908090  63.0491760
  11.2562460  73.5705780  63.6081610  10.9275820  72.7557540  63.2283340
  12.2044760  73.5275590  63.4847300   8.0965300  72.2804750  61.1632800
   7.3137090  72.7550250  61.4429560   7.8028230  71.3759580  61.0545980
  12.6486370  72.9827850  59.2081890  13.0894460  72.9272950  58.3603490
  12.3793960  73.8985860  59.2792070  14.5124940  72.6143090  57.2190710
  14.4513340  71.6704310  57.0721730  15.2916970  72.7223180  57.7644170
   5.9819520  74.6991500  56.6748830   5.1694030  74.3248390  56.3344710
   6.4861160  73.9436580  56.9770020  10.4844500  71.3633950  57.9131900
  11.0873870  71.9354160  58.3880420   9.7437490  71.9273390  57.6905800
  13.6279100  71.7655510  53.1872180  13.8229730  72.6638960  53.4539610
  12.8408970  71.5342590  53.6805130   1.8130860  73.1116280  52.2248490
   2.3423620  72.3246080  52.0956440   2.4459180  73.7907470  52.4584020
   4.0068700  72.8491420  55.2793880   3.3771440  72.1478730  55.4464010
   3.4673840  73.6095550  55.0627040   4.1324260  72.1275400  67.7146370
   3.8508530  72.6309000  66.9507190   4.5143960  71.3297150  67.3488500
  10.7339720  71.5428980  68.2926840  10.6205170  71.8623590  69.1878360
  11.5509460  71.9441490  67.9964120   9.6397870  79.5621450  38.6561580
   9.5591920  78.6476060  38.3853290   9.2262290  80.0588520  37.9501290
   7.7715910  81.3400470  40.5370850   6.9958010  80.8600910  40.8269420
   8.4228840  80.6606120  40.3627010   7.2124900  84.0157660  40.5441010
   7.1433180  83.0747600  40.3830140   7.9744760  84.1059070  41.1163580
   8.2430070  76.8228040  40.7709940   8.6194890  75.9499920  40.6583610
   8.1449580  77.1586740  39.8800380   2.3735080  75.1953670  36.2327380
   2.4801830  76.0957400  36.5396140   1.4627440  75.1471640  35.9422030
  12.0254190  74.3178480  37.7038280  12.8463810  73.8275050  37.7463760
  12.0588270  74.9076140  38.4570120   4.2142810  78.1640040  40.5652560
   4.7221030  78.6621010  41.2057580   4.7456050  77.3875240  40.3891920
  16.3153740  76.3345230  44.2681910  15.6105910  76.7226940  43.7497020
  16.5811660  77.0295520  44.8702840   2.4978910  72.8038600  44.8315980
   2.4997350  73.3210990  44.0261880   1.6683220  72.3268780  44.8085910
   8.8850000  82.9157910  36.3305880   8.2667270  83.3807360  35.7668600
   9.3973250  83.6085390  36.7475390   3.7481760  82.4433780  43.0089480
   3.4151140  83.0702700  43.6510550   3.9248440  82.9695660  42.2291150
  12.2615670  76.2578860  40.4765820  11.5571240  76.5463750  41.0568930
  12.6227830  77.0678970  40.1165380  15.3302590  75.7033650  40.8675030
  14.3827500  75.7372630  40.9990460  15.6552580  76.5172600  41.2524390
   5.8622130  72.0030830  39.1631020   6.1697110  71.4477720  38.4466520
   4.9322830  72.1375290  38.9804010  10.8122630  82.6227960  42.7821090
  11.2291420  82.4088070  41.9474550  11.5362450  82.8800750  43.3529710
   8.2502890  80.0679660  35.8991140   7.3232170  80.0017040  36.1279610
   8.4027710  81.0059790  35.7846380   8.2371970  76.3396660  32.8958300
   7.2975640  76.5010620  32.9810760   8.5555230  77.0582340  32.3494290
  14.7584730  81.0215180  42.8737330  13.9303360  81.0908270  42.3987460
  15.3535210  81.6069490  42.4053160  12.2800180  81.6299960  36.4026390
  11.6612600  81.2919510  35.7552690  12.2624630  80.9859720  37.1105580
  11.7226740  77.8084500  43.8192200  11.3097920  78.6338210  44.0732190
  10.9902690  77.2229540  43.6268560   3.8559530  80.5944400  38.6810870
   3.4516530  79.8821650  38.1856770   3.9422650  80.2497640  39.5698910
   2.5688150  77.3687610  42.4609910   3.1202740  77.4782950  41.6863160
   3.0831660  77.7425210  43.1765140  10.4564880  80.8686770  33.4099140
  10.8958160  80.0309200  33.2636960  11.1693300  81.5016170  33.4963280
  14.0382020  72.1229580  31.7240180  13.7254680  72.2156410  32.6239250
  14.7994490  72.7010610  31.6737610  15.2483310  76.8601080  47.7014320
  14.6327580  77.3680750  47.1729780  14.9279730  75.9599410  47.6440260
   3.0227820  72.8324450  39.5641190   2.5795970  73.6133990  39.2325710
   3.5812810  73.1554340  40.2712130   7.3097630  75.6992970  45.1676510
   6.8477000  75.9075990  45.9796450   6.9075740  74.8852320  44.8647180
  12.3102140  76.9201920  46.2973170  11.4595730  76.6207670  46.6182240
  12.1503930  77.1643930  45.3856990   9.4051850  78.4203670  48.3971960
   9.7305260  77.5867420  48.0574190  10.1932180  78.9432190  48.5450290
   6.1386640  72.4535150  34.4447020   5.5140820  72.4495020  35.1700330
   6.0516760  71.5866110  34.0482990   5.0603720  73.3771780  41.4230790
   5.3576050  74.2834610  41.3422810   5.6089280  72.8890560  40.8090360
   2.8142040  77.9558020  37.2922440   2.5882960  77.7395190  38.1969060
   2.0334570  78.3886480  36.9468410  10.0439800  77.9621390  35.8913090
   9.4448690  78.6857190  35.7076710  10.5919410  77.8998170  35.1089540
   5.2541250  78.8543600  47.9582710   5.1584850  77.9138330  47.8083110
   6.0973230  79.0758670  47.5630780   8.6504670  76.5984930  37.9216370
   9.0434240  76.9157130  37.1085060   9.0121520  75.7196810  38.0360890
   6.9596840  75.3492240  49.1813230   6.2695160  75.1564440  49.8159320
   7.7029140  75.6326880  49.7137530   9.2359810  79.1890680  42.0167150
   8.5040930  79.6977490  42.3657250   8.8384150  78.3720660  41.7155930
   5.6737200  75.8644880  40.4219640   5.6773260  75.4234830  39.5724180
   6.5688320  76.1862210  40.5291460   5.7357350  76.8656960  33.4126400
   5.8570170  76.8243440  34.3612220   5.3505860  77.7281110  33.2573130
   9.6985720  74.6424360  41.4290090   9.7158460  75.0933010  42.2731940
   9.4501300  73.7430000  41.6423530   4.7478850  79.1758100  32.8109700
   4.1795750  78.7276350  32.1845610   5.4567850  79.5350880  32.2774850
  13.1256470  72.0556540  47.2676470  13.4502240  71.3246200  47.7934450
  13.1612980  71.7370180  46.3657460   5.9745170  79.9246660  42.1685050
   6.3415300  79.4505230  42.9146390   5.7850230  80.7988230  42.5093390
   3.7644540  78.9655300  44.4869260   3.4601610  79.8447280  44.7119620
   4.7191000  79.0255090  44.5226700   2.2926330  83.1716290  35.0836110
   1.5188590  82.6313910  34.9234830   3.0220960  82.6522900  34.7453870
  13.0514310  82.1681650  40.8762500  13.7713430  82.6636940  40.4858610
  12.8496130  81.4899540  40.2316370   8.5124250  73.5619610  35.0191890
   7.6988860  73.0632780  34.9437200   8.3186200  74.4017860  34.6028240
   8.4333110  82.2390710  46.7631500   8.3670420  81.3186380  46.5089090
   7.8038250  82.3366150  47.4776140  11.2272640  77.9339260  33.3154050
  12.1152260  78.2456490  33.1405390  11.1977730  77.0611510  32.9234630
   2.3363730  82.8396670  38.7214920   2.8542400  82.0364930  38.6671810
   1.8847750  82.7775810  39.5631750   3.0221390  80.2642280  48.5180170
   2.7221530  80.4099460  47.6207990   3.7932630  79.7047570  48.4253560
  13.4986910  79.2451100  32.7833910  13.4150630  79.6765320  31.9330350
  14.2181100  79.7049450  33.2160730  14.5761050  81.7018620  45.8603880
  13.8509240  82.2947400  45.6633270  15.1036510  81.6942160  45.0617250
  10.1060640  83.4278790  39.3587730  10.4584460  82.8306920  38.6989100
   9.2222970  83.1023020  39.5295980   5.4951130  81.1922510  36.3783500
   5.9513910  82.0027760  36.6043690   5.1439340  80.8745650  37.2101990
  12.4987790  82.9081760  33.7106550  12.2109490  83.3694450  34.4984430
  13.2939960  82.4479530  33.9790770   9.8895620  75.7873590  44.0614170
  10.2576440  74.9668800  44.3893740   9.0293820  75.8475480  44.4769820
  13.2557650  74.7430530  34.8701730  12.6270810  74.8476200  34.1559960
  12.7609570  74.9627310  35.6595610   5.2241680  77.0216480  36.2859610
   4.5157830  77.4902820  36.7273220   5.5086160  76.3638490  36.9204800
   6.8497610  78.4413180  44.2852140   7.3482860  78.9159000  44.9503990
   6.9920560  77.5176700  44.4922170   9.2557110  73.7467140  37.7255400
   9.1324890  73.7653270  36.7764910  10.2041670  73.7946080  37.8453800
   3.4276700  75.3301560  33.6610320   4.2767230  75.7671710  33.5950510
   3.0607970  75.6421820  34.4882380  14.0564470  74.6581140  45.1280530
  13.5538070  75.3986540  45.4674340  14.8721130  75.0465140  44.8117320
  12.3486480  79.9014320  38.5741890  11.4076620  79.9164550  38.7489580
  12.6630550  79.1150280  39.0202190   2.3268120  81.5833920  32.1345850
   3.0931390  81.4715280  32.6971280   2.4042810  80.8871890  31.4822620
   5.4509300  83.5588100  31.6081200   5.3459940  82.9440450  32.3342580
   5.2833520  83.0353990  30.8244210   5.6023620  82.2444900  47.5870430
   4.8369290  82.8129900  47.5025100   5.7839580  81.9521110  46.6938660
   8.6912030  82.6208130  32.2123190   8.1422130  83.0677430  32.8565930
   9.3131290  82.1157380  32.7360860   4.3587150  81.5799050  34.1088490
   4.7803570  81.4138920  34.9519880   4.4837990  80.7699280  33.6143630
   2.5214570  77.5595600  46.9159470   1.9911030  77.0686550  46.2882810
   3.1902640  77.9879800  46.3817400   6.8714790  80.6036660  31.3565590
   7.3920450  79.8885680  30.9906740   7.5183190  81.2422530  31.6566100
  11.4192630  82.0265060  46.6800660  11.8333650  82.1810140  47.5291080
  10.4843630  82.1520280  46.8426440  11.8914800  79.3661220  48.6839810
  12.4735570  78.6113540  48.5960290  12.0676570  79.8968660  47.9071290
   3.0086870  74.5257970  46.9956760   2.9143740  73.9078720  46.2707630
   2.4284260  75.2524260  46.7686670   5.7748310  73.0831210  44.0284150
   5.3265610  73.1055470  43.1829700   5.1413510  72.6850230  44.6254450
   6.1807860  81.9785540  44.6496590   6.5995970  82.8218270  44.4772830
   5.2616490  82.1157580  44.4203370   8.5171760  79.7101720  46.0334430
   8.6367970  79.1142860  46.7729270   9.3765760  79.7471410  45.6135730
  10.8559660  80.2638910  44.6096940  10.3294880  80.7881530  44.0062080
  11.1991000  80.8966300  45.2406670   3.2546050  77.6532280  31.0546650
   3.0535110  76.7899640  31.4159990   3.0838100  77.5665640  30.1168250
   5.2840530  76.2523070  47.2910250   5.8740220  75.9438920  47.9788070
   4.4660770  75.7802820  47.4470150  10.1033960  75.8688880  47.5243270
   9.4149480  75.2070420  47.4593260  10.8239980  75.4227150  47.9691730
  10.7334360  72.4640510  33.5833530  11.0136650  71.6208410  33.9392950
   9.9600090  72.6963620  34.0972280   2.0528850  74.7532900  31.0424530
   2.3554750  74.7600330  30.1343680   2.7923440  74.4030760  31.5392190
   5.2713780  73.6967520  32.0280730   4.9235780  73.0191510  31.4483180
   5.4726550  73.2357030  32.8424120  15.1115080  81.7017240  34.1937440
  15.8733990  82.2713890  34.2997130  15.1269450  81.1344440  34.9645750
  16.1175050  82.5567340  39.0379370  16.4883880  81.7734660  38.6315340
  16.7576980  83.2456440  38.8596670  15.1634250  81.9951610  31.3509960
  15.4383090  82.9030490  31.2229180  14.9744990  81.9314140  32.2871950
  11.5609860  75.0196460  32.6463590  11.9794740  74.8327440  31.8060250
  11.2545920  74.1675510  32.9566520  15.0599590  79.9320600  36.3439390
  14.6843190  79.1648530  35.9120680  14.3302710  80.3143300  36.8314320
  14.4499210  79.0792120  45.9778910  14.2185300  78.8504870  45.0776860
  14.7103760  79.9991670  45.9323800  12.8887280  74.3048550  48.7558610
  13.7657460  74.3131950  49.1392610  12.9008120  73.5679390  48.1450960
  14.3350550  78.1578090  39.6446630  14.8588030  77.6640740  39.0136800
  14.9209970  78.2928450  40.3894200  14.5140270  78.2417960  43.1666180
  13.5642980  78.2081500  43.2811170  14.6953280  79.1518070  42.9315950
  13.8250520  77.4151440  35.5839040  14.3209640  77.1822310  36.3687920
  13.6266590  76.5763280  35.1676680  15.2537680  76.0512390  38.1176720
  15.1436960  75.8968430  39.0558990  16.0145270  75.5233330  37.8752130
  13.6003400  71.9906520  44.5759720  14.2375620  72.6040660  44.9418910
  13.7478290  72.0267180  43.6308950  16.1427950  73.8820310  31.3582860
  17.0677260  73.7501490  31.1501150  16.1203740  73.9613130  32.3119310
  16.2166440  74.6530970  33.9839570  15.4217940  74.5876090  34.5132480
  16.4209720  75.5881610  33.9724920   6.9707880  73.1432710  47.4834820
   6.9096770  73.7354540  48.2330230   7.9108260  73.0358670  47.3385080
   9.6082440  72.8002770  47.1227110  10.2222850  73.1182060  46.4608190
  10.1532000  72.3151360  47.7422970  10.3490480  71.3634910  43.4496400
   9.4750320  71.6970020  43.2469330  10.2401230  70.8908090  44.2748270
  11.2562460  73.5705780  44.8338120  10.9275820  72.7557540  44.4539850
  12.2044760  73.5275590  44.7103810   8.0965300  72.2804750  42.3889310
   7.3137090  72.7550250  42.6686070   7.8028230  71.3759580  42.2802490
  12.6486370  72.9827850  40.4338400  13.0894460  72.9272950  39.5860000
  12.3793960  73.8985860  40.5048580  14.5124940  72.6143090  38.4447220
  14.4513340  71.6704310  38.2978240  15.2916970  72.7223180  38.9900680
   5.9819520  74.6991500  37.9005340   5.1694030  74.3248390  37.5601220
   6.4861160  73.9436580  38.2026530  10.4844500  71.3633950  39.1388410
  11.0873870  71.9354160  39.6136930   9.7437490  71.9273390  38.9162310
  13.6279100  71.7655510  34.4128690  13.8229730  72.6638960  34.6796120
  12.8408970  71.5342590  34.9061640   1.8130860  73.1116280  33.4505000
   2.3423620  72.3246080  33.3212950   2.4459180  73.7907470  33.6840530
   4.0068700  72.8491420  36.5050390   3.3771440  72.1478730  36.6720520
   3.4673840  73.6095550  36.2883550   4.1324260  72.1275400  48.9402880
   3.8508530  72.6309000  48.1763700   4.5143960  71.3297150  48.5745010
  10.7339720  71.5428980  49.5183350  10.6205170  71.8623590  50.4134870
  11.5509460  71.9441490  49.2220630   9.6397870  79.5621450  19.8818090
   9.5591920  78.6476060  19.6109800   9.2262290  80.0588520  19.1757800
   7.7715910  81.3400470  21.7627360   6.9958010  80.8600910  22.0525930
   8.4228840  80.6606120  21.5883520   7.2124900  84.0157660  21.7697520
   7.1433180  83.0747600  21.6086650   7.9744760  84.1059070  22.3420090
   8.2430070  76.8228040  21.9966450   8.6194890  75.9499920  21.8840120
   8.1449580  77.1586740  21.1056890   2.3735080  75.1953670  17.4583890
   2.4801830  76.0957400  17.7652650   1.4627440  75.1471640  17.1678540
  12.0254190  74.3178480  18.9294790  12.8463810  73.8275050  18.9720270
  12.0588270  74.9076140  19.6826630   4.2142810  78.1640040  21.7909070
   4.7221030  78.6621010  22.4314090   4.7456050  77.3875240  21.6148430
  16.3153740  76.3345230  25.4938420  15.6105910  76.7226940  24.9753530
  16.5811660  77.0295520  26.0959350   2.4978910  72.8038600  26.0572490
   2.4997350  73.3210990  25.2518390   1.6683220  72.3268780  26.0342420
   8.8850000  82.9157910  17.5562390   8.2667270  83.3807360  16.9925110
   9.3973250  83.6085390  17.9731900   3.7481760  82.4433780  24.2345990
   3.4151140  83.0702700  24.8767060   3.9248440  82.9695660  23.4547660
  12.2615670  76.2578860  21.7022330  11.5571240  76.5463750  22.2825440
  12.6227830  77.0678970  21.3421890  15.3302590  75.7033650  22.0931540
  14.3827500  75.7372630  22.2246970  15.6552580  76.5172600  22.4780900
   5.8622130  72.0030830  20.3887530   6.1697110  71.4477720  19.6723030
   4.9322830  72.1375290  20.2060520  10.8122630  82.6227960  24.0077600
  11.2291420  82.4088070  23.1731060  11.5362450  82.8800750  24.5786220
   8.2502890  80.0679660  17.1247650   7.3232170  80.0017040  17.3536120
   8.4027710  81.0059790  17.0102890   8.2371970  76.3396660  14.1214810
   7.2975640  76.5010620  14.2067270   8.5555230  77.0582340  13.5750800
  14.7584730  81.0215180  24.0993840  13.9303360  81.0908270  23.6243970
  15.3535210  81.6069490  23.6309670  12.2800180  81.6299960  17.6282900
  11.6612600  81.2919510  16.9809200  12.2624630  80.9859720  18.3362090
  11.7226740  77.8084500  25.0448710  11.3097920  78.6338210  25.2988700
  10.9902690  77.2229540  24.8525070   3.8559530  80.5944400  19.9067380
   3.4516530  79.8821650  19.4113280   3.9422650  80.2497640  20.7955420
   2.5688150  77.3687610  23.6866420   3.1202740  77.4782950  22.9119670
   3.0831660  77.7425210  24.4021650  10.4564880  80.8686770  14.6355650
  10.8958160  80.0309200  14.4893470  11.1693300  81.5016170  14.7219790
  14.0382020  72.1229580  12.9496690  13.7254680  72.2156410  13.8495760
  14.7994490  72.7010610  12.8994120  15.2483310  76.8601080  28.9270830
  14.6327580  77.3680750  28.3986290  14.9279730  75.9599410  28.8696770
   3.0227820  72.8324450  20.7897700   2.5795970  73.6133990  20.4582220
   3.5812810  73.1554340  21.4968640   7.3097630  75.6992970  26.3933020
   6.8477000  75.9075990  27.2052960   6.9075740  74.8852320  26.0903690
  12.3102140  76.9201920  27.5229680  11.4595730  76.6207670  27.8438750
  12.1503930  77.1643930  26.6113500   9.4051850  78.4203670  29.6228470
   9.7305260  77.5867420  29.2830700  10.1932180  78.9432190  29.7706800
   6.1386640  72.4535150  15.6703530   5.5140820  72.4495020  16.3956840
   6.0516760  71.5866110  15.2739500   5.0603720  73.3771780  22.6487300
   5.3576050  74.2834610  22.5679320   5.6089280  72.8890560  22.0346870
   2.8142040  77.9558020  18.5178950   2.5882960  77.7395190  19.4225570
   2.0334570  78.3886480  18.1724920  10.0439800  77.9621390  17.1169600
   9.4448690  78.6857190  16.9333220  10.5919410  77.8998170  16.3346050
   5.2541250  78.8543600  29.1839220   5.1584850  77.9138330  29.0339620
   6.0973230  79.0758670  28.7887290   8.6504670  76.5984930  19.1472880
   9.0434240  76.9157130  18.3341570   9.0121520  75.7196810  19.2617400
   6.9596840  75.3492240  30.4069740   6.2695160  75.1564440  31.0415830
   7.7029140  75.6326880  30.9394040   9.2359810  79.1890680  23.2423660
   8.5040930  79.6977490  23.5913760   8.8384150  78.3720660  22.9412440
   5.6737200  75.8644880  21.6476150   5.6773260  75.4234830  20.7980690
   6.5688320  76.1862210  21.7547970   5.7357350  76.8656960  14.6382910
   5.8570170  76.8243440  15.5868730   5.3505860  77.7281110  14.4829640
   9.6985720  74.6424360  22.6546600   9.7158460  75.0933010  23.4988450
   9.4501300  73.7430000  22.8680040   4.7478850  79.1758100  14.0366210
   4.1795750  78.7276350  13.4102120   5.4567850  79.5350880  13.5031360
  13.1256470  72.0556540  28.4932980  13.4502240  71.3246200  29.0190960
  13.1612980  71.7370180  27.5913970   5.9745170  79.9246660  23.3941560
   6.3415300  79.4505230  24.1402900   5.7850230  80.7988230  23.7349900
   3.7644540  78.9655300  25.7125770   3.4601610  79.8447280  25.9376130
   4.7191000  79.0255090  25.7483210   2.2926330  83.1716290  16.3092620
   1.5188590  82.6313910  16.1491340   3.0220960  82.6522900  15.9710380
  13.0514310  82.1681650  22.1019010  13.7713430  82.6636940  21.7115120
  12.8496130  81.4899540  21.4572880   8.5124250  73.5619610  16.2448400
   7.6988860  73.0632780  16.1693710   8.3186200  74.4017860  15.8284750
   8.4333110  82.2390710  27.9888010   8.3670420  81.3186380  27.7345600
   7.8038250  82.3366150  28.7032650  11.2272640  77.9339260  14.5410560
  12.1152260  78.2456490  14.3661900  11.1977730  77.0611510  14.1491140
   2.3363730  82.8396670  19.9471430   2.8542400  82.0364930  19.8928320
   1.8847750  82.7775810  20.7888260   3.0221390  80.2642280  29.7436680
   2.7221530  80.4099460  28.8464500   3.7932630  79.7047570  29.6510070
  13.4986910  79.2451100  14.0090420  13.4150630  79.6765320  13.1586860
  14.2181100  79.7049450  14.4417240  14.5761050  81.7018620  27.0860390
  13.8509240  82.2947400  26.8889780  15.1036510  81.6942160  26.2873760
  10.1060640  83.4278790  20.5844240  10.4584460  82.8306920  19.9245610
   9.2222970  83.1023020  20.7552490   5.4951130  81.1922510  17.6040010
   5.9513910  82.0027760  17.8300200   5.1439340  80.8745650  18.4358500
  12.4987790  82.9081760  14.9363060  12.2109490  83.3694450  15.7240940
  13.2939960  82.4479530  15.2047280   9.8895620  75.7873590  25.2870680
  10.2576440  74.9668800  25.6150250   9.0293820  75.8475480  25.7026330
  13.2557650  74.7430530  16.0958240  12.6270810  74.8476200  15.3816470
  12.7609570  74.9627310  16.8852120   5.2241680  77.0216480  17.5116120
   4.5157830  77.4902820  17.9529730   5.5086160  76.3638490  18.1461310
   6.8497610  78.4413180  25.5108650   7.3482860  78.9159000  26.1760500
   6.9920560  77.5176700  25.7178680   9.2557110  73.7467140  18.9511910
   9.1324890  73.7653270  18.0021420  10.2041670  73.7946080  19.0710310
   3.4276700  75.3301560  14.8866830   4.2767230  75.7671710  14.8207020
   3.0607970  75.6421820  15.7138890  14.0564470  74.6581140  26.3537040
  13.5538070  75.3986540  26.6930850  14.8721130  75.0465140  26.0373830
  12.3486480  79.9014320  19.7998400  11.4076620  79.9164550  19.9746090
  12.6630550  79.1150280  20.2458700   2.3268120  81.5833920  13.3602360
   3.0931390  81.4715280  13.9227790   2.4042810  80.8871890  12.7079130
   5.4509300  83.5588100  12.8337710   5.3459940  82.9440450  13.5599090
   5.2833520  83.0353990  12.0500720   5.6023620  82.2444900  28.8126940
   4.8369290  82.8129900  28.7281610   5.7839580  81.9521110  27.9195170
   8.6912030  82.6208130  13.4379700   8.1422130  83.0677430  14.0822440
   9.3131290  82.1157380  13.9617370   4.3587150  81.5799050  15.3345000
   4.7803570  81.4138920  16.1776390   4.4837990  80.7699280  14.8400140
   2.5214570  77.5595600  28.1415980   1.9911030  77.0686550  27.5139320
   3.1902640  77.9879800  27.6073910   6.8714790  80.6036660  12.5822100
   7.3920450  79.8885680  12.2163250   7.5183190  81.2422530  12.8822610
  11.4192630  82.0265060  27.9057170  11.8333650  82.1810140  28.7547590
  10.4843630  82.1520280  28.0682950  11.8914800  79.3661220  29.9096320
  12.4735570  78.6113540  29.8216800  12.0676570  79.8968660  29.1327800
   3.0086870  74.5257970  28.2213270   2.9143740  73.9078720  27.4964140
   2.4284260  75.2524260  27.9943180   5.7748310  73.0831210  25.2540660
   5.3265610  73.1055470  24.4086210   5.1413510  72.6850230  25.8510960
   6.1807860  81.9785540  25.8753100   6.5995970  82.8218270  25.7029340
   5.2616490  82.1157580  25.6459880   8.5171760  79.7101720  27.2590940
   8.6367970  79.1142860  27.9985780   9.3765760  79.7471410  26.8392240
  10.8559660  80.2638910  25.8353450  10.3294880  80.7881530  25.2318590
  11.1991000  80.8966300  26.4663180   3.2546050  77.6532280  12.2803160
   3.0535110  76.7899640  12.6416500   3.0838100  77.5665640  11.3424760
   5.2840530  76.2523070  28.5166760   5.8740220  75.9438920  29.2044580
   4.4660770  75.7802820  28.6726660  10.1033960  75.8688880  28.7499780
   9.4149480  75.2070420  28.6849770  10.8239980  75.4227150  29.1948240
  10.7334360  72.4640510  14.8090040  11.0136650  71.6208410  15.1649460
   9.9600090  72.6963620  15.3228790   2.0528850  74.7532900  12.2681040
   2.3554750  74.7600330  11.3600190   2.7923440  74.4030760  12.7648700
   5.2713780  73.6967520  13.2537240   4.9235780  73.0191510  12.6739690
   5.4726550  73.2357030  14.0680630  15.1115080  81.7017240  15.4193950
  15.8733990  82.2713890  15.5253640  15.1269450  81.1344440  16.1902260
  16.1175050  82.5567340  20.2635880  16.4883880  81.7734660  19.8571850
  16.7576980  83.2456440  20.0853180  15.1634250  81.9951610  12.5766470
  15.4383090  82.9030490  12.4485690  14.9744990  81.9314140  13.5128460
  11.5609860  75.0196460  13.8720100  11.9794740  74.8327440  13.0316760
  11.2545920  74.1675510  14.1823030  15.0599590  79.9320600  17.5695900
  14.6843190  79.1648530  17.1377190  14.3302710  80.3143300  18.0570830
  14.4499210  79.0792120  27.2035420  14.2185300  78.8504870  26.3033370
  14.7103760  79.9991670  27.1580310  12.8887280  74.3048550  29.9815120
  13.7657460  74.3131950  30.3649120  12.9008120  73.5679390  29.3707470
  14.3350550  78.1578090  20.8703140  14.8588030  77.6640740  20.2393310
  14.9209970  78.2928450  21.6150710  14.5140270  78.2417960  24.3922690
  13.5642980  78.2081500  24.5067680  14.6953280  79.1518070  24.1572460
  13.8250520  77.4151440  16.8095550  14.3209640  77.1822310  17.5944430
  13.6266590  76.5763280  16.3933190  15.2537680  76.0512390  19.3433230
  15.1436960  75.8968430  20.2815500  16.0145270  75.5233330  19.1008640
  13.6003400  71.9906520  25.8016230  14.2375620  72.6040660  26.1675420
  13.7478290  72.0267180  24.8565460  16.1427950  73.8820310  12.5839370
  17.0677260  73.7501490  12.3757660  16.1203740  73.9613130  13.5375820
  16.2166440  74.6530970  15.2096080  15.4217940  74.5876090  15.7388990
  16.4209720  75.5881610  15.1981430   6.9707880  73.1432710  28.7091330
   6.9096770  73.7354540  29.4586740   7.9108260  73.0358670  28.5641590
   9.6082440  72.8002770  28.3483620  10.2222850  73.1182060  27.6864700
  10.1532000  72.3151360  28.9679480  10.3490480  71.3634910  24.6752910
   9.4750320  71.6970020  24.4725840  10.2401230  70.8908090  25.5004780
  11.2562460  73.5705780  26.0594630  10.9275820  72.7557540  25.6796360
  12.2044760  73.5275590  25.9360320   8.0965300  72.2804750  23.6145820
   7.3137090  72.7550250  23.8942580   7.8028230  71.3759580  23.5059000
  12.6486370  72.9827850  21.6594910  13.0894460  72.9272950  20.8116510
  12.3793960  73.8985860  21.7305090  14.5124940  72.6143090  19.6703730
  14.4513340  71.6704310  19.5234750  15.2916970  72.7223180  20.2157190
   5.9819520  74.6991500  19.1261850   5.1694030  74.3248390  18.7857730
   6.4861160  73.9436580  19.4283040  10.4844500  71.3633950  20.3644920
  11.0873870  71.9354160  20.8393440   9.7437490  71.9273390  20.1418820
  13.6279100  71.7655510  15.6385200  13.8229730  72.6638960  15.9052630
  12.8408970  71.5342590  16.1318150   1.8130860  73.1116280  14.6761510
   2.3423620  72.3246080  14.5469460   2.4459180  73.7907470  14.9097040
   4.0068700  72.8491420  17.7306900   3.3771440  72.1478730  17.8977030
   3.4673840  73.6095550  17.5140060   4.1324260  72.1275400  30.1659390
   3.8508530  72.6309000  29.4020210   4.5143960  71.3297150  29.8001520
  10.7339720  71.5428980  30.7439860  10.6205170  71.8623590  31.6391380
  11.5509460  71.9441490  30.4477140   7.7715910  81.3400470   2.9883870
   6.9958010  80.8600910   3.2782440   8.4228840  80.6606120   2.8140030
   7.2124900  84.0157660   2.9954030   7.1433180  83.0747600   2.8343160
   7.9744760  84.1059070   3.5676600   8.2430070  76.8228040   3.2222960
   8.6194890  75.9499920   3.1096630   8.1449580  77.1586740   2.3313400
   4.2142810  78.1640040   3.0165580   4.7221030  78.6621010   3.6570600
   4.7456050  77.3875240   2.8404940  16.3153740  76.3345230   6.7194930
  15.6105910  76.7226940   6.2010040  16.5811660  77.0295520   7.3215860
   2.4978910  72.8038600   7.2829000   2.4997350  73.3210990   6.4774900
   1.6683220  72.3268780   7.2598930   3.7481760  82.4433780   5.4602500
   3.4151140  83.0702700   6.1023570   3.9248440  82.9695660   4.6804170
  12.2615670  76.2578860   2.9278840  11.5571240  76.5463750   3.5081950
  12.6227830  77.0678970   2.5678400  15.3302590  75.7033650   3.3188050
  14.3827500  75.7372630   3.4503480  15.6552580  76.5172600   3.7037410
  10.8122630  82.6227960   5.2334110  11.2291420  82.4088070   4.3987570
  11.5362450  82.8800750   5.8042730  14.7584730  81.0215180   5.3250350
  13.9303360  81.0908270   4.8500480  15.3535210  81.6069490   4.8566180
  11.7226740  77.8084500   6.2705220  11.3097920  78.6338210   6.5245210
  10.9902690  77.2229540   6.0781580   2.5688150  77.3687610   4.9122930
   3.1202740  77.4782950   4.1376180   3.0831660  77.7425210   5.6278160
  15.2483310  76.8601080  10.1527340  14.6327580  77.3680750   9.6242800
  14.9279730  75.9599410  10.0953280   3.0227820  72.8324450   2.0154210
   2.5795970  73.6133990   1.6838730   3.5812810  73.1554340   2.7225150
   7.3097630  75.6992970   7.6189530   6.8477000  75.9075990   8.4309470
   6.9075740  74.8852320   7.3160200  12.3102140  76.9201920   8.7486190
  11.4595730  76.6207670   9.0695260  12.1503930  77.1643930   7.8370010
   9.4051850  78.4203670  10.8484980   9.7305260  77.5867420  10.5087210
  10.1932180  78.9432190  10.9963310   5.0603720  73.3771780   3.8743810
   5.3576050  74.2834610   3.7935830   5.6089280  72.8890560   3.2603380
   5.2541250  78.8543600  10.4095730   5.1584850  77.9138330  10.2596130
   6.0973230  79.0758670  10.0143800   6.9596840  75.3492240  11.6326250
   6.2695160  75.1564440  12.2672340   7.7029140  75.6326880  12.1650550
   9.2359810  79.1890680   4.4680170   8.5040930  79.6977490   4.8170270
   8.8384150  78.3720660   4.1668950   5.6737200  75.8644880   2.8732660
   5.6773260  75.4234830   2.0237200   6.5688320  76.1862210   2.9804480
   9.6985720  74.6424360   3.8803110   9.7158460  75.0933010   4.7244960
   9.4501300  73.7430000   4.0936550  13.1256470  72.0556540   9.7189490
  13.4502240  71.3246200  10.2447470  13.1612980  71.7370180   8.8170480
   5.9745170  79.9246660   4.6198070   6.3415300  79.4505230   5.3659410
   5.7850230  80.7988230   4.9606410   3.7644540  78.9655300   6.9382280
   3.4601610  79.8447280   7.1632640   4.7191000  79.0255090   6.9739720
  13.0514310  82.1681650   3.3275520  13.7713430  82.6636940   2.9371630
  12.8496130  81.4899540   2.6829390   8.4333110  82.2390710   9.2144520
   8.3670420  81.3186380   8.9602110   7.8038250  82.3366150   9.9289160
   3.0221390  80.2642280  10.9693190   2.7221530  80.4099460  10.0721010
   3.7932630  79.7047570  10.8766580  14.5761050  81.7018620   8.3116900
  13.8509240  82.2947400   8.1146290  15.1036510  81.6942160   7.5130270
   9.8895620  75.7873590   6.5127190  10.2576440  74.9668800   6.8406760
   9.0293820  75.8475480   6.9282840   6.8497610  78.4413180   6.7365160
   7.3482860  78.9159000   7.4017010   6.9920560  77.5176700   6.9435190
  14.0564470  74.6581140   7.5793550  13.5538070  75.3986540   7.9187360
  14.8721130  75.0465140   7.2630340   5.6023620  82.2444900  10.0383450
   4.8369290  82.8129900   9.9538120   5.7839580  81.9521110   9.1451680
   2.5214570  77.5595600   9.3672490   1.9911030  77.0686550   8.7395830
   3.1902640  77.9879800   8.8330420  11.4192630  82.0265060   9.1313680
  11.8333650  82.1810140   9.9804100  10.4843630  82.1520280   9.2939460
  11.8914800  79.3661220  11.1352830  12.4735570  78.6113540  11.0473310
  12.0676570  79.8968660  10.3584310   3.0086870  74.5257970   9.4469780
   2.9143740  73.9078720   8.7220650   2.4284260  75.2524260   9.2199690
   5.7748310  73.0831210   6.4797170   5.3265610  73.1055470   5.6342720
   5.1413510  72.6850230   7.0767470   6.1807860  81.9785540   7.1009610
   6.5995970  82.8218270   6.9285850   5.2616490  82.1157580   6.8716390
   8.5171760  79.7101720   8.4847450   8.6367970  79.1142860   9.2242290
   9.3765760  79.7471410   8.0648750  10.8559660  80.2638910   7.0609960
  10.3294880  80.7881530   6.4575100  11.1991000  80.8966300   7.6919690
   5.2840530  76.2523070   9.7423270   5.8740220  75.9438920  10.4301090
   4.4660770  75.7802820   9.8983170  10.1033960  75.8688880   9.9756290
   9.4149480  75.2070420   9.9106280  10.8239980  75.4227150  10.4204750
  14.4499210  79.0792120   8.4291930  14.2185300  78.8504870   7.5289880
  14.7103760  79.9991670   8.3836820  12.8887280  74.3048550  11.2071630
  13.7657460  74.3131950  11.5905630  12.9008120  73.5679390  10.5963980
  14.5140270  78.2417960   5.6179200  13.5642980  78.2081500   5.7324190
  14.6953280  79.1518070   5.3828970  13.6003400  71.9906520   7.0272740
  14.2375620  72.6040660   7.3931930  13.7478290  72.0267180   6.0821970
   6.9707880  73.1432710   9.9347840   6.9096770  73.7354540  10.6843250
   7.9108260  73.0358670   9.7898100   9.6082440  72.8002770   9.5740130
  10.2222850  73.1182060   8.9121210  10.1532000  72.3151360  10.1935990
  10.3490480  71.3634910   5.9009420   9.4750320  71.6970020   5.6982350
  10.2401230  70.8908090   6.7261290  11.2562460  73.5705780   7.2851140
  10.9275820  72.7557540   6.9052870  12.2044760  73.5275590   7.1616830
   8.0965300  72.2804750   4.8402330   7.3137090  72.7550250   5.1199090
   7.8028230  71.3759580   4.7315510  12.6486370  72.9827850   2.8851420
  13.0894460  72.9272950   2.0373020  12.3793960  73.8985860   2.9561600
   4.1324260  72.1275400  11.3915900   3.8508530  72.6309000  10.6276720
   4.5143960  71.3297150  11.0258030  10.7339720  71.5428980  11.9696370
  10.6205170  71.8623590  12.8647890  11.5509460  71.9441490  11.6733650
   9.6397870  60.7877960  76.2048560   9.5591920  59.8732570  75.9340270
   9.2262290  61.2845030  75.4988270   7.7715910  62.5656980  78.0857830
   6.9958010  62.0857420  78.3756400   8.4228840  61.8862630  77.9113990
  11.7923340  66.9717170  76.8656960  11.3304870  66.2004410  77.1944130
  12.6048890  66.9983240  77.3709410   8.0186650  69.2575180  76.4860950
   7.3998090  69.7132680  75.9155390   8.8738430  69.4126640  76.0850650
   7.2124900  65.2414170  78.0927990   7.1433180  64.3004110  77.9317120
   7.9744760  65.3315580  78.6650560   8.2430070  58.0484550  78.3196920
   8.6194890  57.1756430  78.2070590   8.1449580  58.3843250  77.4287360
   2.3735080  56.4210180  73.7814360   2.4801830  57.3213910  74.0883120
   1.4627440  56.3728150  73.4909010  12.0254190  55.5434990  75.2525260
  12.8463810  55.0531560  75.2950740  12.0588270  56.1332650  76.0057100
   4.2142810  59.3896550  78.1139540   4.7221030  59.8877520  78.7544560
   4.7456050  58.6131750  77.9378900   8.8850000  64.1414420  73.8792860
   8.2667270  64.6063870  73.3155580   9.3973250  64.8341900  74.2962370
  12.2615670  57.4835370  78.0252800  11.5571240  57.7720260  78.6055910
  12.6227830  58.2935480  77.6652360  15.3302590  56.9290160  78.4162010
  14.3827500  56.9629140  78.5477440  15.6552580  57.7429110  78.8011370
   5.8622130  53.2287340  76.7118000   6.1697110  52.6734230  75.9953500
   4.9322830  53.3631800  76.5290990  12.7082610  65.6670850  74.0915630
  12.5978940  64.7245180  74.2165050  12.7050860  66.0286490  74.9778390
   8.2502890  61.2936170  73.4478120   7.3232170  61.2273550  73.6766590
   8.4027710  62.2316300  73.3333360   8.2371970  57.5653170  70.4445280
   7.2975640  57.7267130  70.5297740   8.5555230  58.2838850  69.8981270
  12.2800180  62.8556470  73.9513370  11.6612600  62.5176020  73.3039670
  12.2624630  62.2116230  74.6592560   3.8559530  61.8200910  76.2297850
   3.4516530  61.1078160  75.7343750   3.9422650  61.4754150  77.1185890
   4.3241230  65.5068470  78.3937060   4.0269520  64.9013940  77.7144840
   5.2741050  65.5445780  78.2826420  10.4564880  62.0943280  70.9586120
  10.8958160  61.2565710  70.8123940  11.1693300  62.7272680  71.0450260
   8.5660260  67.0339350  74.9267360   9.0056170  67.7763680  74.5122750
   8.5047150  67.2765920  75.8506320  14.0382020  53.3486090  69.2727160
  13.7254680  53.4412920  70.1726230  14.7994490  53.9267120  69.2224590
  11.2330440  70.0208470  72.2830370  11.0731580  69.7311410  73.1812200
  11.0677150  69.2448600  71.7475600   3.7118820  69.8007000  74.0601990
   3.5361300  68.8842540  73.8469790   2.8574560  70.1594290  74.2999790
  10.9356570  67.5296030  70.8428370  10.2421730  67.5273320  70.1830650
  11.6779430  67.1055350  70.4122540  10.5006500  69.1558740  74.9176860
  10.9563450  68.3748120  75.2315480  10.8399020  69.8665560  75.4618040
   3.0227820  54.0580960  77.1128170   2.5795970  54.8390500  76.7812690
   3.5812810  54.3810850  77.8199110   6.1386640  53.6791660  71.9934000
   5.5140820  53.6751530  72.7187310   6.0516760  52.8122620  71.5969970
   2.8142040  59.1814530  74.8409420   2.5882960  58.9651700  75.7456040
   2.0334570  59.6142990  74.4955390  10.0439800  59.1877900  73.4400070
   9.4448690  59.9113700  73.2563690  10.5919410  59.1254680  72.6576520
   8.6504670  57.8241440  75.4703350   9.0434240  58.1413640  74.6572040
   9.0121520  56.9453320  75.5847870   5.6737200  57.0901390  77.9706620
   5.6773260  56.6491340  77.1211160   6.5688320  57.4118720  78.0778440
   5.7357350  58.0913470  70.9613380   5.8570170  58.0499950  71.9099200
   5.3505860  58.9537620  70.8060110   4.7478850  60.4014610  70.3596680
   4.1795750  59.9532860  69.7332590   5.4567850  60.7607390  69.8261830
   2.2926330  64.3972800  72.6323090   1.5188590  63.8570420  72.4721810
   3.0220960  63.8779410  72.2940850  13.0514310  63.3938160  78.4249480
  13.7713430  63.8893450  78.0345590  12.8496130  62.7156050  77.7803350
   8.5124250  54.7876120  72.5678870   7.6988860  54.2889290  72.4924180
   8.3186200  55.6274370  72.1515220  11.2272640  59.1595770  70.8641030
  12.1152260  59.4713000  70.6892370  11.1977730  58.2868020  70.4721610
   2.3363730  64.0653180  76.2701900   2.8542400  63.2621440  76.2158790
   1.8847750  64.0032320  77.1118730   7.2233230  65.3319460  71.5429200
   7.5648930  66.0761690  71.0472520   6.3945940  65.6450580  71.9054030
  13.4986910  60.4707610  70.3320890  13.4150630  60.9021830  69.4817330
  14.2181100  60.9305960  70.7647710  14.5274160  67.3249870  73.0603020
  13.8850320  66.6705490  73.3346740  14.1404820  67.7304960  72.2843690
  10.1060640  64.6535300  76.9074710  10.4584460  64.0563430  76.2476080
   9.2222970  64.3279530  77.0782960   6.1923920  65.4132990  74.3145120
   6.8795050  65.9602200  74.6952710   5.4056340  65.9573720  74.3494730
   5.4951130  62.4179020  73.9270480   5.9513910  63.2284270  74.1530670
   5.1439340  62.1002160  74.7588970  12.9171540  66.2166330  69.5979370
  12.6909120  65.4996770  70.1904010  12.5267740  65.9678770  68.7601120
  12.4987790  64.1338270  71.2593530  12.2109490  64.5950960  72.0471410
  13.2939960  63.6736040  71.5277750   4.7156190  67.6264390  71.1897500
   4.7066290  68.3594080  70.5742010   3.7954550  67.3795970  71.2824460
  13.2557650  55.9687040  72.4188710  12.6270810  56.0732710  71.7046940
  12.7609570  56.1883820  73.2082590   7.7015790  67.6892630  69.8522690
   7.8027770  67.4856620  68.9224670   6.8017530  67.4350910  70.0570470
   5.2241680  58.2472990  73.8346590   4.5157830  58.7159330  74.2760200
   5.5086160  57.5895000  74.4691780   9.2557110  54.9723650  75.2742380
   9.1324890  54.9909780  74.3251890  10.2041670  55.0202590  75.3940780
   6.3433900  70.2078950  74.5470360   6.5975400  70.1700340  73.6249730
   5.3946380  70.0812280  74.5398610   3.4276700  56.5558070  71.2097300
   4.2767230  56.9928220  71.1437490   3.0607970  56.8678330  72.0369360
  12.3486480  61.1270830  76.1228870  11.4076620  61.1421060  76.2976560
  12.6630550  60.3406790  76.5689170   2.3268120  62.8090430  69.6832830
   3.0931390  62.6971790  70.2458260   2.4042810  62.1128400  69.0309600
  14.3512060  68.2979680  77.7983130  14.4759480  69.1210850  78.2706940
  15.2177620  68.0870410  77.4507280   1.8229590  70.3910890  77.4700260
   2.5592070  69.8426350  77.7408830   2.2070510  71.2566900  77.3306250
   4.9331900  69.5641200  69.2925830   5.7260510  69.8530030  68.8407620
   4.4136250  69.1333370  68.6138310  13.9862070  68.7911330  70.7162570
  13.7003580  68.3776470  69.9016750  13.7881620  69.7199040  70.5963090
   5.4509300  64.7844610  69.1568180   5.3459940  64.1696960  69.8829560
   5.2833520  64.2610500  68.3731190   8.6912030  63.8464640  69.7610170
   8.1422130  64.2933940  70.4052910   9.3131290  63.3413890  70.2847840
   4.3587150  62.8055560  71.6575470   4.7803570  62.6395430  72.5006860
   4.4837990  61.9955790  71.1630610   6.8714790  61.8293170  68.9052570
   7.3920450  61.1142190  68.5393720   7.5183190  62.4679040  69.2053080
   3.2546050  58.8788790  68.6033630   3.0535110  58.0156150  68.9646970
   3.0838100  58.7922150  67.6655230  10.7334360  53.6897020  71.1320510
  11.0136650  52.8464920  71.4879930   9.9600090  53.9220130  71.6459260
   2.0528850  55.9789410  68.5911510   2.3554750  55.9856840  67.6830660
   2.7923440  55.6287270  69.0879170   5.2713780  54.9224030  69.5767710
   4.9235780  54.2448020  68.9970160   5.4726550  54.4613540  70.3911100
   7.4362820  69.9104780  71.1954310   8.3313610  70.2489750  71.2173070
   7.4680450  69.1884190  70.5678590   2.8866700  66.4029870  74.5363540
   2.5862240  66.2794840  75.4367450   2.7804190  65.5438460  74.1279270
  15.6558620  66.1826270  69.2390220  14.8251580  66.2502920  69.7097450
  15.8330450  67.0730390  68.9357080  15.1115080  62.9273750  71.7424420
  15.8733990  63.4970400  71.8484110  15.1269450  62.3600950  72.5132730
  16.1175050  63.7823850  76.5866350  16.4883880  62.9991170  76.1802320
  16.7576980  64.4712950  76.4083650  15.1634250  63.2208120  68.8996940
  15.4383090  64.1287000  68.7716160  14.9744990  63.1570650  69.8358930
  11.5609860  56.2452970  70.1950570  11.9794740  56.0583950  69.3547230
  11.2545920  55.3932020  70.5053500  15.0599590  61.1577110  73.8926370
  14.6843190  60.3905040  73.4607660  14.3302710  61.5399810  74.3801300
  14.3350550  59.3834600  77.1933610  14.8588030  58.8897250  76.5623780
  14.9209970  59.5184960  77.9381180  13.8250520  58.6407950  73.1326020
  14.3209640  58.4078820  73.9174900  13.6266590  57.8019790  72.7163660
  15.2537680  57.2768900  75.6663700  15.1436960  57.1224940  76.6045970
  16.0145270  56.7489840  75.4239110  16.1427950  55.1076820  68.9069840
  17.0677260  54.9758000  68.6988130  16.1203740  55.1869640  69.8606290
  16.2166440  55.8787480  71.5326550  15.4217940  55.8132600  72.0619460
  16.4209720  56.8138120  71.5211900  13.1584860  69.9179030  75.5264940
  13.7543930  69.5963600  74.8499360  13.4163010  69.4450850  76.3178210
  12.6486370  54.2084360  77.9825380  13.0894460  54.1529460  77.1346980
  12.3793960  55.1242370  78.0535560  14.5124940  53.8399600  75.9934200
  14.4513340  52.8960820  75.8465220  15.2916970  53.9479690  76.5387660
   5.9819520  55.9248010  75.4492320   5.1694030  55.5504900  75.1088200
   6.4861160  55.1693090  75.7513510  10.4844500  52.5890460  76.6875390
  11.0873870  53.1610670  77.1623910   9.7437490  53.1529900  76.4649290
  13.6279100  52.9912020  71.9615670  13.8229730  53.8895470  72.2283100
  12.8408970  52.7599100  72.4548620   1.8130860  54.3372790  70.9991980
   2.3423620  53.5502590  70.8699930   2.4459180  55.0163980  71.2327510
   4.0068700  54.0747930  74.0537370   3.3771440  53.3735240  74.2207500
   3.4673840  54.8352060  73.8370530  15.1805710  70.2312730  73.7222230
  15.3557900  69.5450470  73.0783150  14.4827280  70.7559780  73.3298900
   3.0233360  70.6207570  71.2757540   3.7552180  70.3366850  70.7281430
   3.2827030  70.3820850  72.1656920   2.1848150  66.7372300  71.2803870
   1.5557030  67.2057400  71.8289700   2.2995980  65.8921520  71.7150060
   9.6397870  60.7877960  57.4305070   9.5591920  59.8732570  57.1596780
   9.2262290  61.2845030  56.7244780   7.7715910  62.5656980  59.3114340
   6.9958010  62.0857420  59.6012910   8.4228840  61.8862630  59.1370500
  11.7923340  66.9717170  58.0913470  11.3304870  66.2004410  58.4200640
  12.6048890  66.9983240  58.5965920   1.7683000  66.9116880  60.3848120
   2.0711040  66.0214620  60.2058340   2.5126590  67.4687100  60.1570370
   8.0186650  69.2575180  57.7117460   7.3998090  69.7132680  57.1411900
   8.8738430  69.4126640  57.3107160   7.2124900  65.2414170  59.3184500
   7.1433180  64.3004110  59.1573630   7.9744760  65.3315580  59.8907070
   8.2430070  58.0484550  59.5453430   8.6194890  57.1756430  59.4327100
   8.1449580  58.3843250  58.6543870   2.3735080  56.4210180  55.0070870
   2.4801830  57.3213910  55.3139630   1.4627440  56.3728150  54.7165520
  12.0254190  55.5434990  56.4781770  12.8463810  55.0531560  56.5207250
  12.0588270  56.1332650  57.2313610   4.2142810  59.3896550  59.3396050
   4.7221030  59.8877520  59.9801070   4.7456050  58.6131750  59.1635410
  16.3153740  57.5601740  63.0425400  15.6105910  57.9483450  62.5240510
  16.5811660  58.2552030  63.6446330   2.4978910  54.0295110  63.6059470
   2.4997350  54.5467500  62.8005370   1.6683220  53.5525290  63.5829400
   8.8850000  64.1414420  55.1049370   8.2667270  64.6063870  54.5412090
   9.3973250  64.8341900  55.5218880   3.7481760  63.6690290  61.7832970
   3.4151140  64.2959210  62.4254040   3.9248440  64.1952170  61.0034640
  12.2615670  57.4835370  59.2509310  11.5571240  57.7720260  59.8312420
  12.6227830  58.2935480  58.8908870   2.9600860  65.6371090  63.5982150
   3.5774860  66.3122170  63.3166600   2.0993980  66.0459070  63.5069650
  13.8778450  67.1010500  61.5136790  13.1941970  67.7709610  61.5053460
  14.4172740  67.2991150  60.7481650  15.3302590  56.9290160  59.6418520
  14.3827500  56.9629140  59.7733950  15.6552580  57.7429110  60.0267880
   5.8622130  53.2287340  57.9374510   6.1697110  52.6734230  57.2210010
   4.9322830  53.3631800  57.7547500  11.4137190  68.9454630  60.2281970
  11.4264350  68.5416920  59.3604230  10.8612410  69.7201920  60.1243400
  12.7082610  65.6670850  55.3172140  12.5978940  64.7245180  55.4421560
  12.7050860  66.0286490  56.2034900  10.8122630  63.8484470  61.5564580
  11.2291420  63.6344580  60.7218040  11.5362450  64.1057260  62.1273200
   8.2502890  61.2936170  54.6734630   7.3232170  61.2273550  54.9023100
   8.4027710  62.2316300  54.5589870   8.2371970  57.5653170  51.6701790
   7.2975640  57.7267130  51.7554250   8.5555230  58.2838850  51.1237780
  14.7584730  62.2471690  61.6480820  13.9303360  62.3164780  61.1730950
  15.3535210  62.8326000  61.1796650  12.2800180  62.8556470  55.1769880
  11.6612600  62.5176020  54.5296180  12.2624630  62.2116230  55.8849070
  11.7226740  59.0341010  62.5935690  11.3097920  59.8594720  62.8475680
  10.9902690  58.4486050  62.4012050   3.8559530  61.8200910  57.4554360
   3.4516530  61.1078160  56.9600260   3.9422650  61.4754150  58.3442400
   4.3241230  65.5068470  59.6193570   4.0269520  64.9013940  58.9401350
   5.2741050  65.5445780  59.5082930   2.5688150  58.5944120  61.2353400
   3.1202740  58.7039460  60.4606650   3.0831660  58.9681720  61.9508630
  12.4126840  69.0800340  63.2816670  11.9357400  69.8872530  63.0889280
  11.7288630  68.4278670  63.4342880   3.4159660  65.2450160  66.2701370
   2.5188190  65.4690130  66.5174770   3.4412530  65.3685100  65.3212770
  10.4564880  62.0943280  52.1842630  10.8958160  61.2565710  52.0380450
  11.1693300  62.7272680  52.2706770   8.5660260  67.0339350  56.1523870
   9.0056170  67.7763680  55.7379260   8.5047150  67.2765920  57.0762830
   4.0411230  68.0585180  67.0543890   4.0126660  68.4628130  66.1872320
   3.8776200  67.1295540  66.8915490  14.0382020  53.3486090  50.4983670
  13.7254680  53.4412920  51.3982740  14.7994490  53.9267120  50.4481100
  15.9926050  68.8412280  68.3508060  16.4685770  69.3195170  69.0297140
  16.6133210  68.7729770  67.6253560  15.3959300  66.0325130  65.5108070
  15.5222360  65.7937010  64.5925250  15.4380680  65.2009670  65.9830150
   9.2576040  69.7353130  64.0802880   9.7720710  69.6461140  64.8825310
   8.4145120  70.0812830  64.3730790  11.2330440  70.0208470  53.5086880
  11.0731580  69.7311410  54.4068710  11.0677150  69.2448600  52.9732110
   3.7118820  69.8007000  55.2858500   3.5361300  68.8842540  55.0726300
   2.8574560  70.1594290  55.5256300  10.9356570  67.5296030  52.0684880
  10.2421730  67.5273320  51.4087160  11.6779430  67.1055350  51.6379050
  10.5006500  69.1558740  56.1433370  10.9563450  68.3748120  56.4571990
  10.8399020  69.8665560  56.6874550  15.2483310  58.0857590  66.4757810
  14.6327580  58.5937260  65.9473270  14.9279730  57.1855920  66.4183750
   3.0227820  54.0580960  58.3384680   2.5795970  54.8390500  58.0069200
   3.5812810  54.3810850  59.0455620   7.3097630  56.9249480  63.9420000
   6.8477000  57.1332500  64.7539940   6.9075740  56.1108830  63.6390670
  12.3102140  58.1458430  65.0716660  11.4595730  57.8464180  65.3925730
  12.1503930  58.3900440  64.1600480   9.4051850  59.6460180  67.1715450
   9.7305260  58.8123930  66.8317680  10.1932180  60.1688700  67.3193780
   6.1386640  53.6791660  53.2190510   5.5140820  53.6751530  53.9443820
   6.0516760  52.8122620  52.8226480   5.0603720  54.6028290  60.1974280
   5.3576050  55.5091120  60.1166300   5.6089280  54.1147070  59.5833850
   2.8142040  59.1814530  56.0665930   2.5882960  58.9651700  56.9712550
   2.0334570  59.6142990  55.7211900  10.0439800  59.1877900  54.6656580
   9.4448690  59.9113700  54.4820200  10.5919410  59.1254680  53.8833030
   5.2541250  60.0800110  66.7326200   5.1584850  59.1394840  66.5826600
   6.0973230  60.3015180  66.3374270   8.6504670  57.8241440  56.6959860
   9.0434240  58.1413640  55.8828550   9.0121520  56.9453320  56.8104380
   6.9596840  56.5748750  67.9556720   6.2695160  56.3820950  68.5902810
   7.7029140  56.8583390  68.4881020   9.2359810  60.4147190  60.7910640
   8.5040930  60.9234000  61.1400740   8.8384150  59.5977170  60.4899420
   5.6737200  57.0901390  59.1963130   5.6773260  56.6491340  58.3467670
   6.5688320  57.4118720  59.3034950   5.7357350  58.0913470  52.1869890
   5.8570170  58.0499950  53.1355710   5.3505860  58.9537620  52.0316620
   9.6985720  55.8680870  60.2033580   9.7158460  56.3189520  61.0475430
   9.4501300  54.9686510  60.4167020   4.7478850  60.4014610  51.5853190
   4.1795750  59.9532860  50.9589100   5.4567850  60.7607390  51.0518340
  13.1256470  53.2813050  66.0419960  13.4502240  52.5502710  66.5677940
  13.1612980  52.9626690  65.1400950   5.9745170  61.1503170  60.9428540
   6.3415300  60.6761740  61.6889880   5.7850230  62.0244740  61.2836880
   3.7644540  60.1911810  63.2612750   3.4601610  61.0703790  63.4863110
   4.7191000  60.2511600  63.2970190   2.2926330  64.3972800  53.8579600
   1.5188590  63.8570420  53.6978320   3.0220960  63.8779410  53.5197360
  13.0514310  63.3938160  59.6505990  13.7713430  63.8893450  59.2602100
  12.8496130  62.7156050  59.0059860   8.5124250  54.7876120  53.7935380
   7.6988860  54.2889290  53.7180690   8.3186200  55.6274370  53.3771730
   8.4333110  63.4647220  65.5374990   8.3670420  62.5442890  65.2832580
   7.8038250  63.5622660  66.2519630  11.2272640  59.1595770  52.0897540
  12.1152260  59.4713000  51.9148880  11.1977730  58.2868020  51.6978120
   2.3363730  64.0653180  57.4958410   2.8542400  63.2621440  57.4415300
   1.8847750  64.0032320  58.3375240   7.2233230  65.3319460  52.7685710
   7.5648930  66.0761690  52.2729030   6.3945940  65.6450580  53.1310540
   3.0221390  61.4898790  67.2923660   2.7221530  61.6355970  66.3951480
   3.7932630  60.9304080  67.1997050   8.3649840  66.2867790  65.2878790
   8.3794380  65.3548750  65.0697700   7.6574940  66.3727550  65.9268560
  13.4986910  60.4707610  51.5577400  13.4150630  60.9021830  50.7073840
  14.2181100  60.9305960  51.9904220  14.5761050  62.9275130  64.6347370
  13.8509240  63.5203910  64.4376760  15.1036510  62.9198670  63.8360740
  14.5274160  67.3249870  54.2859530  13.8850320  66.6705490  54.5603250
  14.1404820  67.7304960  53.5100200  10.1060640  64.6535300  58.1331220
  10.4584460  64.0563430  57.4732590   9.2222970  64.3279530  58.3039470
   6.1923920  65.4132990  55.5401630   6.8795050  65.9602200  55.9209220
   5.4056340  65.9573720  55.5751240   5.4951130  62.4179020  55.1526990
   5.9513910  63.2284270  55.3787180   5.1439340  62.1002160  55.9845480
   7.7983740  67.9285360  62.3819290   8.4425960  68.1344740  63.0592710
   8.1613180  67.1673760  61.9290140   9.0715820  65.9317710  61.0996740
   9.7138050  65.2310870  61.2128910   9.5965170  66.7116150  60.9193630
  12.9171540  66.2166330  50.8235880  12.6909120  65.4996770  51.4160520
  12.5267740  65.9678770  49.9857630  10.8453440  66.7312610  64.3032800
  11.1809680  67.3179300  64.9810720   9.9253780  66.6005320  64.5330590
  12.4987790  64.1338270  52.4850040  12.2109490  64.5950960  53.2727920
  13.2939960  63.6736040  52.7534260   6.6742020  66.7803940  67.4720860
   6.3538890  66.0613180  68.0166550   6.0000380  67.4559010  67.5456920
   4.7156190  67.6264390  52.4154010   4.7066290  68.3594080  51.7998520
   3.7954550  67.3795970  52.5080970   9.8895620  57.0130100  62.8357660
  10.2576440  56.1925310  63.1637230   9.0293820  57.0731990  63.2513310
  13.2557650  55.9687040  53.6445220  12.6270810  56.0732710  52.9303450
  12.7609570  56.1883820  54.4339100   7.7015790  67.6892630  51.0779200
   7.8027770  67.4856620  50.1481180   6.8017530  67.4350910  51.2826980
   5.2241680  58.2472990  55.0603100   4.5157830  58.7159330  55.5016710
   5.5086160  57.5895000  55.6948290   6.8497610  59.6669690  63.0595630
   7.3482860  60.1415510  63.7247480   6.9920560  58.7433210  63.2665660
   9.2557110  54.9723650  56.4998890   9.1324890  54.9909780  55.5508400
  10.2041670  55.0202590  56.6197290   6.3433900  70.2078950  55.7726870
   6.5975400  70.1700340  54.8506240   5.3946380  70.0812280  55.7655120
   3.4276700  56.5558070  52.4353810   4.2767230  56.9928220  52.3694000
   3.0607970  56.8678330  53.2625870  14.0564470  55.8837650  63.9024020
  13.5538070  56.6243050  64.2417830  14.8721130  56.2721650  63.5860810
  12.3486480  61.1270830  57.3485380  11.4076620  61.1421060  57.5233070
  12.6630550  60.3406790  57.7945680   2.3268120  62.8090430  50.9089340
   3.0931390  62.6971790  51.4714770   2.4042810  62.1128400  50.2566110
  14.3512060  68.2979680  59.0239640  14.4759480  69.1210850  59.4963450
  15.2177620  68.0870410  58.6763790   1.8229590  70.3910890  58.6956770
   2.5592070  69.8426350  58.9665340   2.2070510  71.2566900  58.5562760
   4.9331900  69.5641200  50.5182340   5.7260510  69.8530030  50.0664130
   4.4136250  69.1333370  49.8394820   9.6652500  65.6836830  67.8317760
   9.0590660  65.7068430  67.0913510   9.3606610  64.9519870  68.3685010
  11.0952870  69.4117120  66.4427170  12.0474620  69.3275140  66.3927410
  10.9481090  70.0758830  67.1160960  13.9862070  68.7911330  51.9419080
  13.7003580  68.3776470  51.1273260  13.7881620  69.7199040  51.8219600
   5.4509300  64.7844610  50.3824690   5.3459940  64.1696960  51.1086070
   5.2833520  64.2610500  49.5987700   5.6023620  63.4701410  66.3613920
   4.8369290  64.0386410  66.2768590   5.7839580  63.1777620  65.4682150
   8.6912030  63.8464640  50.9866680   8.1422130  64.2933940  51.6309420
   9.3131290  63.3413890  51.5104350  12.7446970  65.2006740  66.9188940
  13.4856440  65.5382500  66.4156400  11.9819650  65.3698800  66.3658710
   4.3587150  62.8055560  52.8831980   4.7803570  62.6395430  53.7263370
   4.4837990  61.9955790  52.3887120   2.5214570  58.7852110  65.6902960
   1.9911030  58.2943060  65.0626300   3.1902640  59.2136310  65.1560890
   6.8714790  61.8293170  50.1309080   7.3920450  61.1142190  49.7650230
   7.5183190  62.4679040  50.4309590  11.4192630  63.2521570  65.4544150
  11.8333650  63.4066650  66.3034570  10.4843630  63.3776790  65.6169930
  11.8914800  60.5917730  67.4583300  12.4735570  59.8370050  67.3703780
  12.0676570  61.1225170  66.6814780   3.0086870  55.7514480  65.7700250
   2.9143740  55.1335230  65.0451120   2.4284260  56.4780770  65.5430160
   5.7748310  54.3087720  62.8027640   5.3265610  54.3311980  61.9573190
   5.1413510  53.9106740  63.3997940   6.1807860  63.2042050  63.4240080
   6.5995970  64.0474780  63.2516320   5.2616490  63.3414090  63.1946860
   8.5171760  60.9358230  64.8077920   8.6367970  60.3399370  65.5472760
   9.3765760  60.9727920  64.3879220  10.8559660  61.4895420  63.3840430
  10.3294880  62.0138040  62.7805570  11.1991000  62.1222810  64.0150160
   3.2546050  58.8788790  49.8290140   3.0535110  58.0156150  50.1903480
   3.0838100  58.7922150  48.8911740   4.0315280  69.5095060  64.5397810
   3.4936370  70.2341120  64.2206510   4.2849240  69.0325400  63.7495150
   5.2840530  57.4779580  66.0653740   5.8740220  57.1695430  66.7531560
   4.4660770  57.0059330  66.2213640  10.1033960  57.0945390  66.2986760
   9.4149480  56.4326930  66.2336750  10.8239980  56.6483660  66.7435220
  10.7334360  53.6897020  52.3577020  11.0136650  52.8464920  52.7136440
   9.9600090  53.9220130  52.8715770   2.0528850  55.9789410  49.8168020
   2.3554750  55.9856840  48.9087170   2.7923440  55.6287270  50.3135680
   6.8877490  70.7446270  64.7984460   6.8136190  71.6481410  65.1056830
   5.9856330  70.4258170  64.7706530   5.2713780  54.9224030  50.8024220
   4.9235780  54.2448020  50.2226670   5.4726550  54.4613540  51.6167610
   7.4362820  69.9104780  52.4210820   8.3313610  70.2489750  52.4429580
   7.4680450  69.1884190  51.7935100   2.8866700  66.4029870  55.7620050
   2.5862240  66.2794840  56.6623960   2.7804190  65.5438460  55.3535780
  14.4157170  68.4408450  65.1277020  13.8159160  68.5001010  64.3840940
  14.5451070  67.5013430  65.2573870  15.6558620  66.1826270  50.4646730
  14.8251580  66.2502920  50.9353960  15.8330450  67.0730390  50.1613590
  15.1115080  62.9273750  52.9680930  15.8733990  63.4970400  53.0740620
  15.1269450  62.3600950  53.7389240  16.1175050  63.7823850  57.8122860
  16.4883880  62.9991170  57.4058830  16.7576980  64.4712950  57.6340160
  13.1008810  65.1660430  63.2253180  12.2868650  65.5957590  63.4878970
  13.5083010  65.7778840  62.6122230  15.1634250  63.2208120  50.1253450
  15.4383090  64.1287000  49.9972670  14.9744990  63.1570650  51.0615440
  11.5609860  56.2452970  51.4207080  11.9794740  56.0583950  50.5803740
  11.2545920  55.3932020  51.7310010  15.0599590  61.1577110  55.1182880
  14.6843190  60.3905040  54.6864170  14.3302710  61.5399810  55.6057810
  14.4499210  60.3048630  64.7522400  14.2185300  60.0761380  63.8520350
  14.7103760  61.2248180  64.7067290  12.8887280  55.5305060  67.5302100
  13.7657460  55.5388460  67.9136100  12.9008120  54.7935900  66.9194450
  14.3350550  59.3834600  58.4190120  14.8588030  58.8897250  57.7880290
  14.9209970  59.5184960  59.1637690  14.5140270  59.4674470  61.9409670
  13.5642980  59.4338010  62.0554660  14.6953280  60.3774580  61.7059440
  13.8250520  58.6407950  54.3582530  14.3209640  58.4078820  55.1431410
  13.6266590  57.8019790  53.9420170  15.2537680  57.2768900  56.8920210
  15.1436960  57.1224940  57.8302480  16.0145270  56.7489840  56.6495620
  13.6003400  53.2163030  63.3503210  14.2375620  53.8297170  63.7162400
  13.7478290  53.2523690  62.4052440  16.1427950  55.1076820  50.1326350
  17.0677260  54.9758000  49.9244640  16.1203740  55.1869640  51.0862800
  16.2166440  55.8787480  52.7583060  15.4217940  55.8132600  53.2875970
  16.4209720  56.8138120  52.7468410  13.1584860  69.9179030  56.7521450
  13.7543930  69.5963600  56.0755870  13.4163010  69.4450850  57.5434720
   4.7653460  67.9056530  62.5021800   4.5244820  68.1731090  61.6152320
   5.7056100  68.0762260  62.5572660   6.9707880  54.3689220  66.2578310
   6.9096770  54.9611050  67.0073720   7.9108260  54.2615180  66.1128570
   9.6082440  54.0259280  65.8970600  10.2222850  54.3438570  65.2351680
  10.1532000  53.5407870  66.5166460  16.0257620  69.9250910  63.3032440
  15.5315900  70.3219780  62.5859570  15.4170910  69.3000120  63.6969720
  10.3490480  52.5891420  62.2239890   9.4750320  52.9226530  62.0212820
  10.2401230  52.1164600  63.0491760  11.2562460  54.7962290  63.6081610
  10.9275820  53.9814050  63.2283340  12.2044760  54.7532100  63.4847300
  13.7097070  70.5674330  60.5819180  13.2500040  71.3190140  60.2077200
  13.0809530  69.8480800  60.5233980   4.1392790  68.8762570  59.7567310
   4.6557810  68.2649930  59.2315570   4.7890170  69.3791350  60.2478320
   6.8788290  69.7671060  60.5836290   7.1666100  69.5125360  59.7069300
   7.3911510  69.2148420  61.1741860   8.0965300  53.5061260  61.1632800
   7.3137090  53.9806760  61.4429560   7.8028230  52.6016090  61.0545980
  12.6486370  54.2084360  59.2081890  13.0894460  54.1529460  58.3603490
  12.3793960  55.1242370  59.2792070  14.5124940  53.8399600  57.2190710
  14.4513340  52.8960820  57.0721730  15.2916970  53.9479690  57.7644170
   5.9819520  55.9248010  56.6748830   5.1694030  55.5504900  56.3344710
   6.4861160  55.1693090  56.9770020  10.4844500  52.5890460  57.9131900
  11.0873870  53.1610670  58.3880420   9.7437490  53.1529900  57.6905800
  13.6279100  52.9912020  53.1872180  13.8229730  53.8895470  53.4539610
  12.8408970  52.7599100  53.6805130   1.8130860  54.3372790  52.2248490
   2.3423620  53.5502590  52.0956440   2.4459180  55.0163980  52.4584020
   4.0068700  54.0747930  55.2793880   3.3771440  53.3735240  55.4464010
   3.4673840  54.8352060  55.0627040   6.9460650  70.6887160  67.9504490
   7.8727960  70.4531430  67.9940450   6.9311080  71.5159160  67.4690520
  15.1805710  70.2312730  54.9478740  15.3557900  69.5450470  54.3039660
  14.4827280  70.7559780  54.5555410   4.1324260  53.3531910  67.7146370
   3.8508530  53.8565510  66.9507190   4.5143960  52.5553660  67.3488500
   3.0233360  70.6207570  52.5014050   3.7552180  70.3366850  51.9537940
   3.2827030  70.3820850  53.3913430   2.1848150  66.7372300  52.5060380
   1.5557030  67.2057400  53.0546210   2.2995980  65.8921520  52.9406570
  10.7339720  52.7685490  68.2926840  10.6205170  53.0880100  69.1878360
  11.5509460  53.1698000  67.9964120  13.5138210  69.9157020  67.7745530
  14.3063530  69.4206250  67.5671490  13.8071360  70.5947160  68.3821140
   9.6397870  60.7877960  38.6561580   9.5591920  59.8732570  38.3853290
   9.2262290  61.2845030  37.9501290   7.7715910  62.5656980  40.5370850
   6.9958010  62.0857420  40.8269420   8.4228840  61.8862630  40.3627010
  11.7923340  66.9717170  39.3169980  11.3304870  66.2004410  39.6457150
  12.6048890  66.9983240  39.8222430   1.7683000  66.9116880  41.6104630
   2.0711040  66.0214620  41.4314850   2.5126590  67.4687100  41.3826880
   8.0186650  69.2575180  38.9373970   7.3998090  69.7132680  38.3668410
   8.8738430  69.4126640  38.5363670   7.2124900  65.2414170  40.5441010
   7.1433180  64.3004110  40.3830140   7.9744760  65.3315580  41.1163580
   8.2430070  58.0484550  40.7709940   8.6194890  57.1756430  40.6583610
   8.1449580  58.3843250  39.8800380   2.3735080  56.4210180  36.2327380
   2.4801830  57.3213910  36.5396140   1.4627440  56.3728150  35.9422030
  12.0254190  55.5434990  37.7038280  12.8463810  55.0531560  37.7463760
  12.0588270  56.1332650  38.4570120   4.2142810  59.3896550  40.5652560
   4.7221030  59.8877520  41.2057580   4.7456050  58.6131750  40.3891920
  16.3153740  57.5601740  44.2681910  15.6105910  57.9483450  43.7497020
  16.5811660  58.2552030  44.8702840   2.4978910  54.0295110  44.8315980
   2.4997350  54.5467500  44.0261880   1.6683220  53.5525290  44.8085910
   8.8850000  64.1414420  36.3305880   8.2667270  64.6063870  35.7668600
   9.3973250  64.8341900  36.7475390   3.7481760  63.6690290  43.0089480
   3.4151140  64.2959210  43.6510550   3.9248440  64.1952170  42.2291150
  12.2615670  57.4835370  40.4765820  11.5571240  57.7720260  41.0568930
  12.6227830  58.2935480  40.1165380   2.9600860  65.6371090  44.8238660
   3.5774860  66.3122170  44.5423110   2.0993980  66.0459070  44.7326160
  13.8778450  67.1010500  42.7393300  13.1941970  67.7709610  42.7309970
  14.4172740  67.2991150  41.9738160  15.3302590  56.9290160  40.8675030
  14.3827500  56.9629140  40.9990460  15.6552580  57.7429110  41.2524390
   5.8622130  53.2287340  39.1631020   6.1697110  52.6734230  38.4466520
   4.9322830  53.3631800  38.9804010  11.4137190  68.9454630  41.4538480
  11.4264350  68.5416920  40.5860740  10.8612410  69.7201920  41.3499910
  12.7082610  65.6670850  36.5428650  12.5978940  64.7245180  36.6678070
  12.7050860  66.0286490  37.4291410  10.8122630  63.8484470  42.7821090
  11.2291420  63.6344580  41.9474550  11.5362450  64.1057260  43.3529710
   8.2502890  61.2936170  35.8991140   7.3232170  61.2273550  36.1279610
   8.4027710  62.2316300  35.7846380   8.2371970  57.5653170  32.8958300
   7.2975640  57.7267130  32.9810760   8.5555230  58.2838850  32.3494290
  14.7584730  62.2471690  42.8737330  13.9303360  62.3164780  42.3987460
  15.3535210  62.8326000  42.4053160  12.2800180  62.8556470  36.4026390
  11.6612600  62.5176020  35.7552690  12.2624630  62.2116230  37.1105580
  11.7226740  59.0341010  43.8192200  11.3097920  59.8594720  44.0732190
  10.9902690  58.4486050  43.6268560   3.8559530  61.8200910  38.6810870
   3.4516530  61.1078160  38.1856770   3.9422650  61.4754150  39.5698910
   4.3241230  65.5068470  40.8450080   4.0269520  64.9013940  40.1657860
   5.2741050  65.5445780  40.7339440   2.5688150  58.5944120  42.4609910
   3.1202740  58.7039460  41.6863160   3.0831660  58.9681720  43.1765140
  12.4126840  69.0800340  44.5073180  11.9357400  69.8872530  44.3145790
  11.7288630  68.4278670  44.6599390   3.4159660  65.2450160  47.4957880
   2.5188190  65.4690130  47.7431280   3.4412530  65.3685100  46.5469280
  10.4564880  62.0943280  33.4099140  10.8958160  61.2565710  33.2636960
  11.1693300  62.7272680  33.4963280   8.5660260  67.0339350  37.3780380
   9.0056170  67.7763680  36.9635770   8.5047150  67.2765920  38.3019340
   4.0411230  68.0585180  48.2800400   4.0126660  68.4628130  47.4128830
   3.8776200  67.1295540  48.1172000  14.0382020  53.3486090  31.7240180
  13.7254680  53.4412920  32.6239250  14.7994490  53.9267120  31.6737610
  15.9926050  68.8412280  49.5764570  16.4685770  69.3195170  50.2553650
  16.6133210  68.7729770  48.8510070  15.3959300  66.0325130  46.7364580
  15.5222360  65.7937010  45.8181760  15.4380680  65.2009670  47.2086660
   9.2576040  69.7353130  45.3059390   9.7720710  69.6461140  46.1081820
   8.4145120  70.0812830  45.5987300  11.2330440  70.0208470  34.7343390
  11.0731580  69.7311410  35.6325220  11.0677150  69.2448600  34.1988620
   3.7118820  69.8007000  36.5115010   3.5361300  68.8842540  36.2982810
   2.8574560  70.1594290  36.7512810  10.9356570  67.5296030  33.2941390
  10.2421730  67.5273320  32.6343670  11.6779430  67.1055350  32.8635560
  10.5006500  69.1558740  37.3689880  10.9563450  68.3748120  37.6828500
  10.8399020  69.8665560  37.9131060  15.2483310  58.0857590  47.7014320
  14.6327580  58.5937260  47.1729780  14.9279730  57.1855920  47.6440260
   3.0227820  54.0580960  39.5641190   2.5795970  54.8390500  39.2325710
   3.5812810  54.3810850  40.2712130   7.3097630  56.9249480  45.1676510
   6.8477000  57.1332500  45.9796450   6.9075740  56.1108830  44.8647180
  12.3102140  58.1458430  46.2973170  11.4595730  57.8464180  46.6182240
  12.1503930  58.3900440  45.3856990   9.4051850  59.6460180  48.3971960
   9.7305260  58.8123930  48.0574190  10.1932180  60.1688700  48.5450290
   6.1386640  53.6791660  34.4447020   5.5140820  53.6751530  35.1700330
   6.0516760  52.8122620  34.0482990   5.0603720  54.6028290  41.4230790
   5.3576050  55.5091120  41.3422810   5.6089280  54.1147070  40.8090360
   2.8142040  59.1814530  37.2922440   2.5882960  58.9651700  38.1969060
   2.0334570  59.6142990  36.9468410  10.0439800  59.1877900  35.8913090
   9.4448690  59.9113700  35.7076710  10.5919410  59.1254680  35.1089540
   5.2541250  60.0800110  47.9582710   5.1584850  59.1394840  47.8083110
   6.0973230  60.3015180  47.5630780   8.6504670  57.8241440  37.9216370
   9.0434240  58.1413640  37.1085060   9.0121520  56.9453320  38.0360890
   6.9596840  56.5748750  49.1813230   6.2695160  56.3820950  49.8159320
   7.7029140  56.8583390  49.7137530   9.2359810  60.4147190  42.0167150
   8.5040930  60.9234000  42.3657250   8.8384150  59.5977170  41.7155930
   5.6737200  57.0901390  40.4219640   5.6773260  56.6491340  39.5724180
   6.5688320  57.4118720  40.5291460   5.7357350  58.0913470  33.4126400
   5.8570170  58.0499950  34.3612220   5.3505860  58.9537620  33.2573130
   9.6985720  55.8680870  41.4290090   9.7158460  56.3189520  42.2731940
   9.4501300  54.9686510  41.6423530   4.7478850  60.4014610  32.8109700
   4.1795750  59.9532860  32.1845610   5.4567850  60.7607390  32.2774850
  13.1256470  53.2813050  47.2676470  13.4502240  52.5502710  47.7934450
  13.1612980  52.9626690  46.3657460   5.9745170  61.1503170  42.1685050
   6.3415300  60.6761740  42.9146390   5.7850230  62.0244740  42.5093390
   3.7644540  60.1911810  44.4869260   3.4601610  61.0703790  44.7119620
   4.7191000  60.2511600  44.5226700   2.2926330  64.3972800  35.0836110
   1.5188590  63.8570420  34.9234830   3.0220960  63.8779410  34.7453870
  13.0514310  63.3938160  40.8762500  13.7713430  63.8893450  40.4858610
  12.8496130  62.7156050  40.2316370   8.5124250  54.7876120  35.0191890
   7.6988860  54.2889290  34.9437200   8.3186200  55.6274370  34.6028240
   8.4333110  63.4647220  46.7631500   8.3670420  62.5442890  46.5089090
   7.8038250  63.5622660  47.4776140  11.2272640  59.1595770  33.3154050
  12.1152260  59.4713000  33.1405390  11.1977730  58.2868020  32.9234630
   2.3363730  64.0653180  38.7214920   2.8542400  63.2621440  38.6671810
   1.8847750  64.0032320  39.5631750   7.2233230  65.3319460  33.9942220
   7.5648930  66.0761690  33.4985540   6.3945940  65.6450580  34.3567050
   3.0221390  61.4898790  48.5180170   2.7221530  61.6355970  47.6207990
   3.7932630  60.9304080  48.4253560   8.3649840  66.2867790  46.5135300
   8.3794380  65.3548750  46.2954210   7.6574940  66.3727550  47.1525070
  13.4986910  60.4707610  32.7833910  13.4150630  60.9021830  31.9330350
  14.2181100  60.9305960  33.2160730  14.5761050  62.9275130  45.8603880
  13.8509240  63.5203910  45.6633270  15.1036510  62.9198670  45.0617250
  14.5274160  67.3249870  35.5116040  13.8850320  66.6705490  35.7859760
  14.1404820  67.7304960  34.7356710  10.1060640  64.6535300  39.3587730
  10.4584460  64.0563430  38.6989100   9.2222970  64.3279530  39.5295980
   6.1923920  65.4132990  36.7658140   6.8795050  65.9602200  37.1465730
   5.4056340  65.9573720  36.8007750   5.4951130  62.4179020  36.3783500
   5.9513910  63.2284270  36.6043690   5.1439340  62.1002160  37.2101990
   7.7983740  67.9285360  43.6075800   8.4425960  68.1344740  44.2849220
   8.1613180  67.1673760  43.1546650   9.0715820  65.9317710  42.3253250
   9.7138050  65.2310870  42.4385420   9.5965170  66.7116150  42.1450140
  12.9171540  66.2166330  32.0492390  12.6909120  65.4996770  32.6417030
  12.5267740  65.9678770  31.2114140  10.8453440  66.7312610  45.5289310
  11.1809680  67.3179300  46.2067230   9.9253780  66.6005320  45.7587100
  12.4987790  64.1338270  33.7106550  12.2109490  64.5950960  34.4984430
  13.2939960  63.6736040  33.9790770   6.6742020  66.7803940  48.6977370
   6.3538890  66.0613180  49.2423060   6.0000380  67.4559010  48.7713430
   4.7156190  67.6264390  33.6410520   4.7066290  68.3594080  33.0255030
   3.7954550  67.3795970  33.7337480   9.8895620  57.0130100  44.0614170
  10.2576440  56.1925310  44.3893740   9.0293820  57.0731990  44.4769820
  13.2557650  55.9687040  34.8701730  12.6270810  56.0732710  34.1559960
  12.7609570  56.1883820  35.6595610   7.7015790  67.6892630  32.3035710
   7.8027770  67.4856620  31.3737690   6.8017530  67.4350910  32.5083490
   5.2241680  58.2472990  36.2859610   4.5157830  58.7159330  36.7273220
   5.5086160  57.5895000  36.9204800   6.8497610  59.6669690  44.2852140
   7.3482860  60.1415510  44.9503990   6.9920560  58.7433210  44.4922170
   9.2557110  54.9723650  37.7255400   9.1324890  54.9909780  36.7764910
  10.2041670  55.0202590  37.8453800   6.3433900  70.2078950  36.9983380
   6.5975400  70.1700340  36.0762750   5.3946380  70.0812280  36.9911630
   3.4276700  56.5558070  33.6610320   4.2767230  56.9928220  33.5950510
   3.0607970  56.8678330  34.4882380  14.0564470  55.8837650  45.1280530
  13.5538070  56.6243050  45.4674340  14.8721130  56.2721650  44.8117320
  12.3486480  61.1270830  38.5741890  11.4076620  61.1421060  38.7489580
  12.6630550  60.3406790  39.0202190   2.3268120  62.8090430  32.1345850
   3.0931390  62.6971790  32.6971280   2.4042810  62.1128400  31.4822620
  14.3512060  68.2979680  40.2496150  14.4759480  69.1210850  40.7219960
  15.2177620  68.0870410  39.9020300   1.8229590  70.3910890  39.9213280
   2.5592070  69.8426350  40.1921850   2.2070510  71.2566900  39.7819270
   4.9331900  69.5641200  31.7438850   5.7260510  69.8530030  31.2920640
   4.4136250  69.1333370  31.0651330   9.6652500  65.6836830  49.0574270
   9.0590660  65.7068430  48.3170020   9.3606610  64.9519870  49.5941520
  11.0952870  69.4117120  47.6683680  12.0474620  69.3275140  47.6183920
  10.9481090  70.0758830  48.3417470  13.9862070  68.7911330  33.1675590
  13.7003580  68.3776470  32.3529770  13.7881620  69.7199040  33.0476110
   5.4509300  64.7844610  31.6081200   5.3459940  64.1696960  32.3342580
   5.2833520  64.2610500  30.8244210   5.6023620  63.4701410  47.5870430
   4.8369290  64.0386410  47.5025100   5.7839580  63.1777620  46.6938660
   8.6912030  63.8464640  32.2123190   8.1422130  64.2933940  32.8565930
   9.3131290  63.3413890  32.7360860  12.7446970  65.2006740  48.1445450
  13.4856440  65.5382500  47.6412910  11.9819650  65.3698800  47.5915220
   4.3587150  62.8055560  34.1088490   4.7803570  62.6395430  34.9519880
   4.4837990  61.9955790  33.6143630   2.5214570  58.7852110  46.9159470
   1.9911030  58.2943060  46.2882810   3.1902640  59.2136310  46.3817400
   6.8714790  61.8293170  31.3565590   7.3920450  61.1142190  30.9906740
   7.5183190  62.4679040  31.6566100  11.4192630  63.2521570  46.6800660
  11.8333650  63.4066650  47.5291080  10.4843630  63.3776790  46.8426440
  11.8914800  60.5917730  48.6839810  12.4735570  59.8370050  48.5960290
  12.0676570  61.1225170  47.9071290   3.0086870  55.7514480  46.9956760
   2.9143740  55.1335230  46.2707630   2.4284260  56.4780770  46.7686670
   5.7748310  54.3087720  44.0284150   5.3265610  54.3311980  43.1829700
   5.1413510  53.9106740  44.6254450   6.1807860  63.2042050  44.6496590
   6.5995970  64.0474780  44.4772830   5.2616490  63.3414090  44.4203370
   8.5171760  60.9358230  46.0334430   8.6367970  60.3399370  46.7729270
   9.3765760  60.9727920  45.6135730  10.8559660  61.4895420  44.6096940
  10.3294880  62.0138040  44.0062080  11.1991000  62.1222810  45.2406670
   3.2546050  58.8788790  31.0546650   3.0535110  58.0156150  31.4159990
   3.0838100  58.7922150  30.1168250   4.0315280  69.5095060  45.7654320
   3.4936370  70.2341120  45.4463020   4.2849240  69.0325400  44.9751660
   5.2840530  57.4779580  47.2910250   5.8740220  57.1695430  47.9788070
   4.4660770  57.0059330  47.4470150  10.1033960  57.0945390  47.5243270
   9.4149480  56.4326930  47.4593260  10.8239980  56.6483660  47.9691730
  10.7334360  53.6897020  33.5833530  11.0136650  52.8464920  33.9392950
   9.9600090  53.9220130  34.0972280   2.0528850  55.9789410  31.0424530
   2.3554750  55.9856840  30.1343680   2.7923440  55.6287270  31.5392190
   6.8877490  70.7446270  46.0240970   6.8136190  71.6481410  46.3313340
   5.9856330  70.4258170  45.9963040   5.2713780  54.9224030  32.0280730
   4.9235780  54.2448020  31.4483180   5.4726550  54.4613540  32.8424120
   7.4362820  69.9104780  33.6467330   8.3313610  70.2489750  33.6686090
   7.4680450  69.1884190  33.0191610   2.8866700  66.4029870  36.9876560
   2.5862240  66.2794840  37.8880470   2.7804190  65.5438460  36.5792290
  14.4157170  68.4408450  46.3533530  13.8159160  68.5001010  45.6097450
  14.5451070  67.5013430  46.4830380  15.6558620  66.1826270  31.6903240
  14.8251580  66.2502920  32.1610470  15.8330450  67.0730390  31.3870100
  15.1115080  62.9273750  34.1937440  15.8733990  63.4970400  34.2997130
  15.1269450  62.3600950  34.9645750  13.1008810  65.1660430  44.4509690
  12.2868650  65.5957590  44.7135480  13.5083010  65.7778840  43.8378740
  15.1634250  63.2208120  31.3509960  15.4383090  64.1287000  31.2229180
  14.9744990  63.1570650  32.2871950  11.5609860  56.2452970  32.6463590
  11.9794740  56.0583950  31.8060250  11.2545920  55.3932020  32.9566520
  15.0599590  61.1577110  36.3439390  14.6843190  60.3905040  35.9120680
  14.3302710  61.5399810  36.8314320  14.4499210  60.3048630  45.9778910
  14.2185300  60.0761380  45.0776860  14.7103760  61.2248180  45.9323800
  12.8887280  55.5305060  48.7558610  13.7657460  55.5388460  49.1392610
  12.9008120  54.7935900  48.1450960  14.3350550  59.3834600  39.6446630
  14.8588030  58.8897250  39.0136800  14.9209970  59.5184960  40.3894200
  14.5140270  59.4674470  43.1666180  13.5642980  59.4338010  43.2811170
  14.6953280  60.3774580  42.9315950  13.8250520  58.6407950  35.5839040
  14.3209640  58.4078820  36.3687920  13.6266590  57.8019790  35.1676680
  15.2537680  57.2768900  38.1176720  15.1436960  57.1224940  39.0558990
  16.0145270  56.7489840  37.8752130  13.6003400  53.2163030  44.5759720
  14.2375620  53.8297170  44.9418910  13.7478290  53.2523690  43.6308950
  16.1427950  55.1076820  31.3582860  17.0677260  54.9758000  31.1501150
  16.1203740  55.1869640  32.3119310  16.2166440  55.8787480  33.9839570
  15.4217940  55.8132600  34.5132480  16.4209720  56.8138120  33.9724920
  13.1584860  69.9179030  37.9777960  13.7543930  69.5963600  37.3012380
  13.4163010  69.4450850  38.7691230   4.7653460  67.9056530  43.7278310
   4.5244820  68.1731090  42.8408830   5.7056100  68.0762260  43.7829170
   6.9707880  54.3689220  47.4834820   6.9096770  54.9611050  48.2330230
   7.9108260  54.2615180  47.3385080   9.6082440  54.0259280  47.1227110
  10.2222850  54.3438570  46.4608190  10.1532000  53.5407870  47.7422970
  16.0257620  69.9250910  44.5288950  15.5315900  70.3219780  43.8116080
  15.4170910  69.3000120  44.9226230  10.3490480  52.5891420  43.4496400
   9.4750320  52.9226530  43.2469330  10.2401230  52.1164600  44.2748270
  11.2562460  54.7962290  44.8338120  10.9275820  53.9814050  44.4539850
  12.2044760  54.7532100  44.7103810  13.7097070  70.5674330  41.8075690
  13.2500040  71.3190140  41.4333710  13.0809530  69.8480800  41.7490490
   4.1392790  68.8762570  40.9823820   4.6557810  68.2649930  40.4572080
   4.7890170  69.3791350  41.4734830   6.8788290  69.7671060  41.8092800
   7.1666100  69.5125360  40.9325810   7.3911510  69.2148420  42.3998370
   8.0965300  53.5061260  42.3889310   7.3137090  53.9806760  42.6686070
   7.8028230  52.6016090  42.2802490  12.6486370  54.2084360  40.4338400
  13.0894460  54.1529460  39.5860000  12.3793960  55.1242370  40.5048580
  14.5124940  53.8399600  38.4447220  14.4513340  52.8960820  38.2978240
  15.2916970  53.9479690  38.9900680   5.9819520  55.9248010  37.9005340
   5.1694030  55.5504900  37.5601220   6.4861160  55.1693090  38.2026530
  10.4844500  52.5890460  39.1388410  11.0873870  53.1610670  39.6136930
   9.7437490  53.1529900  38.9162310   1.8130860  54.3372790  33.4505000
   2.3423620  53.5502590  33.3212950   2.4459180  55.0163980  33.6840530
   4.0068700  54.0747930  36.5050390   3.3771440  53.3735240  36.6720520
   3.4673840  54.8352060  36.2883550   6.9460650  70.6887160  49.1761000
   7.8727960  70.4531430  49.2196960   6.9311080  71.5159160  48.6947030
  15.1805710  70.2312730  36.1735250  15.3557900  69.5450470  35.5296170
  14.4827280  70.7559780  35.7811920   4.1324260  53.3531910  48.9402880
   3.8508530  53.8565510  48.1763700   4.5143960  52.5553660  48.5745010
   3.0233360  70.6207570  33.7270560   3.7552180  70.3366850  33.1794450
   3.2827030  70.3820850  34.6169940   2.1848150  66.7372300  33.7316890
   1.5557030  67.2057400  34.2802720   2.2995980  65.8921520  34.1663080
  10.7339720  52.7685490  49.5183350  10.6205170  53.0880100  50.4134870
  11.5509460  53.1698000  49.2220630  13.5138210  69.9157020  49.0002040
  14.3063530  69.4206250  48.7928000  13.8071360  70.5947160  49.6077650
   9.6397870  60.7877960  19.8818090   9.5591920  59.8732570  19.6109800
   9.2262290  61.2845030  19.1757800   7.7715910  62.5656980  21.7627360
   6.9958010  62.0857420  22.0525930   8.4228840  61.8862630  21.5883520
  11.7923340  66.9717170  20.5426490  11.3304870  66.2004410  20.8713660
  12.6048890  66.9983240  21.0478940   1.7683000  66.9116880  22.8361140
   2.0711040  66.0214620  22.6571360   2.5126590  67.4687100  22.6083390
   8.0186650  69.2575180  20.1630480   7.3998090  69.7132680  19.5924920
   8.8738430  69.4126640  19.7620180   7.2124900  65.2414170  21.7697520
   7.1433180  64.3004110  21.6086650   7.9744760  65.3315580  22.3420090
   8.2430070  58.0484550  21.9966450   8.6194890  57.1756430  21.8840120
   8.1449580  58.3843250  21.1056890   2.3735080  56.4210180  17.4583890
   2.4801830  57.3213910  17.7652650   1.4627440  56.3728150  17.1678540
  12.0254190  55.5434990  18.9294790  12.8463810  55.0531560  18.9720270
  12.0588270  56.1332650  19.6826630   4.2142810  59.3896550  21.7909070
   4.7221030  59.8877520  22.4314090   4.7456050  58.6131750  21.6148430
  16.3153740  57.5601740  25.4938420  15.6105910  57.9483450  24.9753530
  16.5811660  58.2552030  26.0959350   2.4978910  54.0295110  26.0572490
   2.4997350  54.5467500  25.2518390   1.6683220  53.5525290  26.0342420
   8.8850000  64.1414420  17.5562390   8.2667270  64.6063870  16.9925110
   9.3973250  64.8341900  17.9731900   3.7481760  63.6690290  24.2345990
   3.4151140  64.2959210  24.8767060   3.9248440  64.1952170  23.4547660
  12.2615670  57.4835370  21.7022330  11.5571240  57.7720260  22.2825440
  12.6227830  58.2935480  21.3421890   2.9600860  65.6371090  26.0495170
   3.5774860  66.3122170  25.7679620   2.0993980  66.0459070  25.9582670
  13.8778450  67.1010500  23.9649810  13.1941970  67.7709610  23.9566480
  14.4172740  67.2991150  23.1994670  15.3302590  56.9290160  22.0931540
  14.3827500  56.9629140  22.2246970  15.6552580  57.7429110  22.4780900
   5.8622130  53.2287340  20.3887530   6.1697110  52.6734230  19.6723030
   4.9322830  53.3631800  20.2060520  11.4137190  68.9454630  22.6794990
  11.4264350  68.5416920  21.8117250  10.8612410  69.7201920  22.5756420
  12.7082610  65.6670850  17.7685160  12.5978940  64.7245180  17.8934580
  12.7050860  66.0286490  18.6547920  10.8122630  63.8484470  24.0077600
  11.2291420  63.6344580  23.1731060  11.5362450  64.1057260  24.5786220
   8.2502890  61.2936170  17.1247650   7.3232170  61.2273550  17.3536120
   8.4027710  62.2316300  17.0102890   8.2371970  57.5653170  14.1214810
   7.2975640  57.7267130  14.2067270   8.5555230  58.2838850  13.5750800
  14.7584730  62.2471690  24.0993840  13.9303360  62.3164780  23.6243970
  15.3535210  62.8326000  23.6309670  12.2800180  62.8556470  17.6282900
  11.6612600  62.5176020  16.9809200  12.2624630  62.2116230  18.3362090
  11.7226740  59.0341010  25.0448710  11.3097920  59.8594720  25.2988700
  10.9902690  58.4486050  24.8525070   3.8559530  61.8200910  19.9067380
   3.4516530  61.1078160  19.4113280   3.9422650  61.4754150  20.7955420
   4.3241230  65.5068470  22.0706590   4.0269520  64.9013940  21.3914370
   5.2741050  65.5445780  21.9595950   2.5688150  58.5944120  23.6866420
   3.1202740  58.7039460  22.9119670   3.0831660  58.9681720  24.4021650
  12.4126840  69.0800340  25.7329690  11.9357400  69.8872530  25.5402300
  11.7288630  68.4278670  25.8855900   3.4159660  65.2450160  28.7214390
   2.5188190  65.4690130  28.9687790   3.4412530  65.3685100  27.7725790
  10.4564880  62.0943280  14.6355650  10.8958160  61.2565710  14.4893470
  11.1693300  62.7272680  14.7219790   8.5660260  67.0339350  18.6036890
   9.0056170  67.7763680  18.1892280   8.5047150  67.2765920  19.5275850
   4.0411230  68.0585180  29.5056910   4.0126660  68.4628130  28.6385340
   3.8776200  67.1295540  29.3428510  14.0382020  53.3486090  12.9496690
  13.7254680  53.4412920  13.8495760  14.7994490  53.9267120  12.8994120
  15.9926050  68.8412280  30.8021080  16.4685770  69.3195170  31.4810160
  16.6133210  68.7729770  30.0766580  15.3959300  66.0325130  27.9621090
  15.5222360  65.7937010  27.0438270  15.4380680  65.2009670  28.4343170
   9.2576040  69.7353130  26.5315900   9.7720710  69.6461140  27.3338330
   8.4145120  70.0812830  26.8243810  11.2330440  70.0208470  15.9599900
  11.0731580  69.7311410  16.8581730  11.0677150  69.2448600  15.4245130
   3.7118820  69.8007000  17.7371520   3.5361300  68.8842540  17.5239320
   2.8574560  70.1594290  17.9769320  10.9356570  67.5296030  14.5197900
  10.2421730  67.5273320  13.8600180  11.6779430  67.1055350  14.0892070
  10.5006500  69.1558740  18.5946390  10.9563450  68.3748120  18.9085010
  10.8399020  69.8665560  19.1387570  15.2483310  58.0857590  28.9270830
  14.6327580  58.5937260  28.3986290  14.9279730  57.1855920  28.8696770
   3.0227820  54.0580960  20.7897700   2.5795970  54.8390500  20.4582220
   3.5812810  54.3810850  21.4968640   7.3097630  56.9249480  26.3933020
   6.8477000  57.1332500  27.2052960   6.9075740  56.1108830  26.0903690
  12.3102140  58.1458430  27.5229680  11.4595730  57.8464180  27.8438750
  12.1503930  58.3900440  26.6113500   9.4051850  59.6460180  29.6228470
   9.7305260  58.8123930  29.2830700  10.1932180  60.1688700  29.7706800
   6.1386640  53.6791660  15.6703530   5.5140820  53.6751530  16.3956840
   6.0516760  52.8122620  15.2739500   5.0603720  54.6028290  22.6487300
   5.3576050  55.5091120  22.5679320   5.6089280  54.1147070  22.0346870
   2.8142040  59.1814530  18.5178950   2.5882960  58.9651700  19.4225570
   2.0334570  59.6142990  18.1724920  10.0439800  59.1877900  17.1169600
   9.4448690  59.9113700  16.9333220  10.5919410  59.1254680  16.3346050
   5.2541250  60.0800110  29.1839220   5.1584850  59.1394840  29.0339620
   6.0973230  60.3015180  28.7887290   8.6504670  57.8241440  19.1472880
   9.0434240  58.1413640  18.3341570   9.0121520  56.9453320  19.2617400
   6.9596840  56.5748750  30.4069740   6.2695160  56.3820950  31.0415830
   7.7029140  56.8583390  30.9394040   9.2359810  60.4147190  23.2423660
   8.5040930  60.9234000  23.5913760   8.8384150  59.5977170  22.9412440
   5.6737200  57.0901390  21.6476150   5.6773260  56.6491340  20.7980690
   6.5688320  57.4118720  21.7547970   5.7357350  58.0913470  14.6382910
   5.8570170  58.0499950  15.5868730   5.3505860  58.9537620  14.4829640
   9.6985720  55.8680870  22.6546600   9.7158460  56.3189520  23.4988450
   9.4501300  54.9686510  22.8680040   4.7478850  60.4014610  14.0366210
   4.1795750  59.9532860  13.4102120   5.4567850  60.7607390  13.5031360
  13.1256470  53.2813050  28.4932980  13.4502240  52.5502710  29.0190960
  13.1612980  52.9626690  27.5913970   5.9745170  61.1503170  23.3941560
   6.3415300  60.6761740  24.1402900   5.7850230  62.0244740  23.7349900
   3.7644540  60.1911810  25.7125770   3.4601610  61.0703790  25.9376130
   4.7191000  60.2511600  25.7483210   2.2926330  64.3972800  16.3092620
   1.5188590  63.8570420  16.1491340   3.0220960  63.8779410  15.9710380
  13.0514310  63.3938160  22.1019010  13.7713430  63.8893450  21.7115120
  12.8496130  62.7156050  21.4572880   8.5124250  54.7876120  16.2448400
   7.6988860  54.2889290  16.1693710   8.3186200  55.6274370  15.8284750
   8.4333110  63.4647220  27.9888010   8.3670420  62.5442890  27.7345600
   7.8038250  63.5622660  28.7032650  11.2272640  59.1595770  14.5410560
  12.1152260  59.4713000  14.3661900  11.1977730  58.2868020  14.1491140
   2.3363730  64.0653180  19.9471430   2.8542400  63.2621440  19.8928320
   1.8847750  64.0032320  20.7888260   7.2233230  65.3319460  15.2198730
   7.5648930  66.0761690  14.7242050   6.3945940  65.6450580  15.5823560
   3.0221390  61.4898790  29.7436680   2.7221530  61.6355970  28.8464500
   3.7932630  60.9304080  29.6510070   8.3649840  66.2867790  27.7391810
   8.3794380  65.3548750  27.5210720   7.6574940  66.3727550  28.3781580
  13.4986910  60.4707610  14.0090420  13.4150630  60.9021830  13.1586860
  14.2181100  60.9305960  14.4417240  14.5761050  62.9275130  27.0860390
  13.8509240  63.5203910  26.8889780  15.1036510  62.9198670  26.2873760
  14.5274160  67.3249870  16.7372550  13.8850320  66.6705490  17.0116270
  14.1404820  67.7304960  15.9613220  10.1060640  64.6535300  20.5844240
  10.4584460  64.0563430  19.9245610   9.2222970  64.3279530  20.7552490
   6.1923920  65.4132990  17.9914650   6.8795050  65.9602200  18.3722240
   5.4056340  65.9573720  18.0264260   5.4951130  62.4179020  17.6040010
   5.9513910  63.2284270  17.8300200   5.1439340  62.1002160  18.4358500
   7.7983740  67.9285360  24.8332310   8.4425960  68.1344740  25.5105730
   8.1613180  67.1673760  24.3803160   9.0715820  65.9317710  23.5509760
   9.7138050  65.2310870  23.6641930   9.5965170  66.7116150  23.3706650
  12.9171540  66.2166330  13.2748900  12.6909120  65.4996770  13.8673540
  12.5267740  65.9678770  12.4370650  10.8453440  66.7312610  26.7545820
  11.1809680  67.3179300  27.4323740   9.9253780  66.6005320  26.9843610
  12.4987790  64.1338270  14.9363060  12.2109490  64.5950960  15.7240940
  13.2939960  63.6736040  15.2047280   6.6742020  66.7803940  29.9233880
   6.3538890  66.0613180  30.4679570   6.0000380  67.4559010  29.9969940
   4.7156190  67.6264390  14.8667030   4.7066290  68.3594080  14.2511540
   3.7954550  67.3795970  14.9593990   9.8895620  57.0130100  25.2870680
  10.2576440  56.1925310  25.6150250   9.0293820  57.0731990  25.7026330
  13.2557650  55.9687040  16.0958240  12.6270810  56.0732710  15.3816470
  12.7609570  56.1883820  16.8852120   7.7015790  67.6892630  13.5292220
   7.8027770  67.4856620  12.5994200   6.8017530  67.4350910  13.7340000
   5.2241680  58.2472990  17.5116120   4.5157830  58.7159330  17.9529730
   5.5086160  57.5895000  18.1461310   6.8497610  59.6669690  25.5108650
   7.3482860  60.1415510  26.1760500   6.9920560  58.7433210  25.7178680
   9.2557110  54.9723650  18.9511910   9.1324890  54.9909780  18.0021420
  10.2041670  55.0202590  19.0710310   6.3433900  70.2078950  18.2239890
   6.5975400  70.1700340  17.3019260   5.3946380  70.0812280  18.2168140
   3.4276700  56.5558070  14.8866830   4.2767230  56.9928220  14.8207020
   3.0607970  56.8678330  15.7138890  14.0564470  55.8837650  26.3537040
  13.5538070  56.6243050  26.6930850  14.8721130  56.2721650  26.0373830
  12.3486480  61.1270830  19.7998400  11.4076620  61.1421060  19.9746090
  12.6630550  60.3406790  20.2458700   2.3268120  62.8090430  13.3602360
   3.0931390  62.6971790  13.9227790   2.4042810  62.1128400  12.7079130
  14.3512060  68.2979680  21.4752660  14.4759480  69.1210850  21.9476470
  15.2177620  68.0870410  21.1276810   1.8229590  70.3910890  21.1469790
   2.5592070  69.8426350  21.4178360   2.2070510  71.2566900  21.0075780
   4.9331900  69.5641200  12.9695360   5.7260510  69.8530030  12.5177150
   4.4136250  69.1333370  12.2907840   9.6652500  65.6836830  30.2830780
   9.0590660  65.7068430  29.5426530   9.3606610  64.9519870  30.8198030
  11.0952870  69.4117120  28.8940190  12.0474620  69.3275140  28.8440430
  10.9481090  70.0758830  29.5673980  13.9862070  68.7911330  14.3932100
  13.7003580  68.3776470  13.5786280  13.7881620  69.7199040  14.2732620
   5.4509300  64.7844610  12.8337710   5.3459940  64.1696960  13.5599090
   5.2833520  64.2610500  12.0500720   5.6023620  63.4701410  28.8126940
   4.8369290  64.0386410  28.7281610   5.7839580  63.1777620  27.9195170
   8.6912030  63.8464640  13.4379700   8.1422130  64.2933940  14.0822440
   9.3131290  63.3413890  13.9617370  12.7446970  65.2006740  29.3701960
  13.4856440  65.5382500  28.8669420  11.9819650  65.3698800  28.8171730
   4.3587150  62.8055560  15.3345000   4.7803570  62.6395430  16.1776390
   4.4837990  61.9955790  14.8400140   2.5214570  58.7852110  28.1415980
   1.9911030  58.2943060  27.5139320   3.1902640  59.2136310  27.6073910
   6.8714790  61.8293170  12.5822100   7.3920450  61.1142190  12.2163250
   7.5183190  62.4679040  12.8822610  11.4192630  63.2521570  27.9057170
  11.8333650  63.4066650  28.7547590  10.4843630  63.3776790  28.0682950
  11.8914800  60.5917730  29.9096320  12.4735570  59.8370050  29.8216800
  12.0676570  61.1225170  29.1327800   3.0086870  55.7514480  28.2213270
   2.9143740  55.1335230  27.4964140   2.4284260  56.4780770  27.9943180
   5.7748310  54.3087720  25.2540660   5.3265610  54.3311980  24.4086210
   5.1413510  53.9106740  25.8510960   6.1807860  63.2042050  25.8753100
   6.5995970  64.0474780  25.7029340   5.2616490  63.3414090  25.6459880
   8.5171760  60.9358230  27.2590940   8.6367970  60.3399370  27.9985780
   9.3765760  60.9727920  26.8392240  10.8559660  61.4895420  25.8353450
  10.3294880  62.0138040  25.2318590  11.1991000  62.1222810  26.4663180
   3.2546050  58.8788790  12.2803160   3.0535110  58.0156150  12.6416500
   3.0838100  58.7922150  11.3424760   4.0315280  69.5095060  26.9910830
   3.4936370  70.2341120  26.6719530   4.2849240  69.0325400  26.2008170
   5.2840530  57.4779580  28.5166760   5.8740220  57.1695430  29.2044580
   4.4660770  57.0059330  28.6726660  10.1033960  57.0945390  28.7499780
   9.4149480  56.4326930  28.6849770  10.8239980  56.6483660  29.1948240
  10.7334360  53.6897020  14.8090040  11.0136650  52.8464920  15.1649460
   9.9600090  53.9220130  15.3228790   2.0528850  55.9789410  12.2681040
   2.3554750  55.9856840  11.3600190   2.7923440  55.6287270  12.7648700
   6.8877490  70.7446270  27.2497480   6.8136190  71.6481410  27.5569850
   5.9856330  70.4258170  27.2219550   5.2713780  54.9224030  13.2537240
   4.9235780  54.2448020  12.6739690   5.4726550  54.4613540  14.0680630
   7.4362820  69.9104780  14.8723840   8.3313610  70.2489750  14.8942600
   7.4680450  69.1884190  14.2448120   2.8866700  66.4029870  18.2133070
   2.5862240  66.2794840  19.1136980   2.7804190  65.5438460  17.8048800
  14.4157170  68.4408450  27.5790040  13.8159160  68.5001010  26.8353960
  14.5451070  67.5013430  27.7086890  15.6558620  66.1826270  12.9159750
  14.8251580  66.2502920  13.3866980  15.8330450  67.0730390  12.6126610
  15.1115080  62.9273750  15.4193950  15.8733990  63.4970400  15.5253640
  15.1269450  62.3600950  16.1902260  16.1175050  63.7823850  20.2635880
  16.4883880  62.9991170  19.8571850  16.7576980  64.4712950  20.0853180
  13.1008810  65.1660430  25.6766200  12.2868650  65.5957590  25.9391990
  13.5083010  65.7778840  25.0635250  15.1634250  63.2208120  12.5766470
  15.4383090  64.1287000  12.4485690  14.9744990  63.1570650  13.5128460
  11.5609860  56.2452970  13.8720100  11.9794740  56.0583950  13.0316760
  11.2545920  55.3932020  14.1823030  15.0599590  61.1577110  17.5695900
  14.6843190  60.3905040  17.1377190  14.3302710  61.5399810  18.0570830
  14.4499210  60.3048630  27.2035420  14.2185300  60.0761380  26.3033370
  14.7103760  61.2248180  27.1580310  12.8887280  55.5305060  29.9815120
  13.7657460  55.5388460  30.3649120  12.9008120  54.7935900  29.3707470
  14.3350550  59.3834600  20.8703140  14.8588030  58.8897250  20.2393310
  14.9209970  59.5184960  21.6150710  14.5140270  59.4674470  24.3922690
  13.5642980  59.4338010  24.5067680  14.6953280  60.3774580  24.1572460
  13.8250520  58.6407950  16.8095550  14.3209640  58.4078820  17.5944430
  13.6266590  57.8019790  16.3933190  15.2537680  57.2768900  19.3433230
  15.1436960  57.1224940  20.2815500  16.0145270  56.7489840  19.1008640
  13.6003400  53.2163030  25.8016230  14.2375620  53.8297170  26.1675420
  13.7478290  53.2523690  24.8565460  16.1427950  55.1076820  12.5839370
  17.0677260  54.9758000  12.3757660  16.1203740  55.1869640  13.5375820
  16.2166440  55.8787480  15.2096080  15.4217940  55.8132600  15.7388990
  16.4209720  56.8138120  15.1981430  13.1584860  69.9179030  19.2034470
  13.7543930  69.5963600  18.5268890  13.4163010  69.4450850  19.9947740
   4.7653460  67.9056530  24.9534820   4.5244820  68.1731090  24.0665340
   5.7056100  68.0762260  25.0085680   6.9707880  54.3689220  28.7091330
   6.9096770  54.9611050  29.4586740   7.9108260  54.2615180  28.5641590
   9.6082440  54.0259280  28.3483620  10.2222850  54.3438570  27.6864700
  10.1532000  53.5407870  28.9679480  16.0257620  69.9250910  25.7545460
  15.5315900  70.3219780  25.0372590  15.4170910  69.3000120  26.1482740
  10.3490480  52.5891420  24.6752910   9.4750320  52.9226530  24.4725840
  10.2401230  52.1164600  25.5004780  11.2562460  54.7962290  26.0594630
  10.9275820  53.9814050  25.6796360  12.2044760  54.7532100  25.9360320
  13.7097070  70.5674330  23.0332200  13.2500040  71.3190140  22.6590220
  13.0809530  69.8480800  22.9747000   4.1392790  68.8762570  22.2080330
   4.6557810  68.2649930  21.6828590   4.7890170  69.3791350  22.6991340
   6.8788290  69.7671060  23.0349310   7.1666100  69.5125360  22.1582320
   7.3911510  69.2148420  23.6254880   8.0965300  53.5061260  23.6145820
   7.3137090  53.9806760  23.8942580   7.8028230  52.6016090  23.5059000
  12.6486370  54.2084360  21.6594910  13.0894460  54.1529460  20.8116510
  12.3793960  55.1242370  21.7305090  14.5124940  53.8399600  19.6703730
  14.4513340  52.8960820  19.5234750  15.2916970  53.9479690  20.2157190
   5.9819520  55.9248010  19.1261850   5.1694030  55.5504900  18.7857730
   6.4861160  55.1693090  19.4283040  10.4844500  52.5890460  20.3644920
  11.0873870  53.1610670  20.8393440   9.7437490  53.1529900  20.1418820
  13.6279100  52.9912020  15.6385200  13.8229730  53.8895470  15.9052630
  12.8408970  52.7599100  16.1318150   1.8130860  54.3372790  14.6761510
   2.3423620  53.5502590  14.5469460   2.4459180  55.0163980  14.9097040
   4.0068700  54.0747930  17.7306900   3.3771440  53.3735240  17.8977030
   3.4673840  54.8352060  17.5140060   6.9460650  70.6887160  30.4017510
   7.8727960  70.4531430  30.4453470   6.9311080  71.5159160  29.9203540
  15.1805710  70.2312730  17.3991760  15.3557900  69.5450470  16.7552680
  14.4827280  70.7559780  17.0068430   4.1324260  53.3531910  30.1659390
   3.8508530  53.8565510  29.4020210   4.5143960  52.5553660  29.8001520
   3.0233360  70.6207570  14.9527070   3.7552180  70.3366850  14.4050960
   3.2827030  70.3820850  15.8426450   2.1848150  66.7372300  14.9573400
   1.5557030  67.2057400  15.5059230   2.2995980  65.8921520  15.3919590
  10.7339720  52.7685490  30.7439860  10.6205170  53.0880100  31.6391380
  11.5509460  53.1698000  30.4477140  13.5138210  69.9157020  30.2258550
  14.3063530  69.4206250  30.0184510  13.8071360  70.5947160  30.8334160
   7.7715910  62.5656980   2.9883870   6.9958010  62.0857420   3.2782440
   8.4228840  61.8862630   2.8140030  11.7923340  66.9717170   1.7683000
  11.3304870  66.2004410   2.0970170  12.6048890  66.9983240   2.2735450
   1.7683000  66.9116880   4.0617650   2.0711040  66.0214620   3.8827870
   2.5126590  67.4687100   3.8339900   7.2124900  65.2414170   2.9954030
   7.1433180  64.3004110   2.8343160   7.9744760  65.3315580   3.5676600
   8.2430070  58.0484550   3.2222960   8.6194890  57.1756430   3.1096630
   8.1449580  58.3843250   2.3313400   4.2142810  59.3896550   3.0165580
   4.7221030  59.8877520   3.6570600   4.7456050  58.6131750   2.8404940
  16.3153740  57.5601740   6.7194930  15.6105910  57.9483450   6.2010040
  16.5811660  58.2552030   7.3215860   2.4978910  54.0295110   7.2829000
   2.4997350  54.5467500   6.4774900   1.6683220  53.5525290   7.2598930
   3.7481760  63.6690290   5.4602500   3.4151140  64.2959210   6.1023570
   3.9248440  64.1952170   4.6804170  12.2615670  57.4835370   2.9278840
  11.5571240  57.7720260   3.5081950  12.6227830  58.2935480   2.5678400
   2.9600860  65.6371090   7.2751680   3.5774860  66.3122170   6.9936130
   2.0993980  66.0459070   7.1839180  13.8778450  67.1010500   5.1906320
  13.1941970  67.7709610   5.1822990  14.4172740  67.2991150   4.4251180
  15.3302590  56.9290160   3.3188050  14.3827500  56.9629140   3.4503480
  15.6552580  57.7429110   3.7037410  11.4137190  68.9454630   3.9051500
  11.4264350  68.5416920   3.0373760  10.8612410  69.7201920   3.8012930
  10.8122630  63.8484470   5.2334110  11.2291420  63.6344580   4.3987570
  11.5362450  64.1057260   5.8042730  14.7584730  62.2471690   5.3250350
  13.9303360  62.3164780   4.8500480  15.3535210  62.8326000   4.8566180
  11.7226740  59.0341010   6.2705220  11.3097920  59.8594720   6.5245210
  10.9902690  58.4486050   6.0781580   4.3241230  65.5068470   3.2963100
   4.0269520  64.9013940   2.6170880   5.2741050  65.5445780   3.1852460
   2.5688150  58.5944120   4.9122930   3.1202740  58.7039460   4.1376180
   3.0831660  58.9681720   5.6278160  12.4126840  69.0800340   6.9586200
  11.9357400  69.8872530   6.7658810  11.7288630  68.4278670   7.1112410
   3.4159660  65.2450160   9.9470900   2.5188190  65.4690130  10.1944300
   3.4412530  65.3685100   8.9982300   4.0411230  68.0585180  10.7313420
   4.0126660  68.4628130   9.8641850   3.8776200  67.1295540  10.5685020
  15.9926050  68.8412280  12.0277590  16.4685770  69.3195170  12.7066670
  16.6133210  68.7729770  11.3023090  15.3959300  66.0325130   9.1877600
  15.5222360  65.7937010   8.2694780  15.4380680  65.2009670   9.6599680
   9.2576040  69.7353130   7.7572410   9.7720710  69.6461140   8.5594840
   8.4145120  70.0812830   8.0500320  15.2483310  58.0857590  10.1527340
  14.6327580  58.5937260   9.6242800  14.9279730  57.1855920  10.0953280
   3.0227820  54.0580960   2.0154210   2.5795970  54.8390500   1.6838730
   3.5812810  54.3810850   2.7225150   7.3097630  56.9249480   7.6189530
   6.8477000  57.1332500   8.4309470   6.9075740  56.1108830   7.3160200
  12.3102140  58.1458430   8.7486190  11.4595730  57.8464180   9.0695260
  12.1503930  58.3900440   7.8370010   9.4051850  59.6460180  10.8484980
   9.7305260  58.8123930  10.5087210  10.1932180  60.1688700  10.9963310
   5.0603720  54.6028290   3.8743810   5.3576050  55.5091120   3.7935830
   5.6089280  54.1147070   3.2603380   5.2541250  60.0800110  10.4095730
   5.1584850  59.1394840  10.2596130   6.0973230  60.3015180  10.0143800
   6.9596840  56.5748750  11.6326250   6.2695160  56.3820950  12.2672340
   7.7029140  56.8583390  12.1650550   9.2359810  60.4147190   4.4680170
   8.5040930  60.9234000   4.8170270   8.8384150  59.5977170   4.1668950
   5.6737200  57.0901390   2.8732660   5.6773260  56.6491340   2.0237200
   6.5688320  57.4118720   2.9804480   9.6985720  55.8680870   3.8803110
   9.7158460  56.3189520   4.7244960   9.4501300  54.9686510   4.0936550
  13.1256470  53.2813050   9.7189490  13.4502240  52.5502710  10.2447470
  13.1612980  52.9626690   8.8170480   5.9745170  61.1503170   4.6198070
   6.3415300  60.6761740   5.3659410   5.7850230  62.0244740   4.9606410
   3.7644540  60.1911810   6.9382280   3.4601610  61.0703790   7.1632640
   4.7191000  60.2511600   6.9739720  13.0514310  63.3938160   3.3275520
  13.7713430  63.8893450   2.9371630  12.8496130  62.7156050   2.6829390
   8.4333110  63.4647220   9.2144520   8.3670420  62.5442890   8.9602110
   7.8038250  63.5622660   9.9289160   3.0221390  61.4898790  10.9693190
   2.7221530  61.6355970  10.0721010   3.7932630  60.9304080  10.8766580
   8.3649840  66.2867790   8.9648320   8.3794380  65.3548750   8.7467230
   7.6574940  66.3727550   9.6038090  14.5761050  62.9275130   8.3116900
  13.8509240  63.5203910   8.1146290  15.1036510  62.9198670   7.5130270
   7.7983740  67.9285360   6.0588820   8.4425960  68.1344740   6.7362240
   8.1613180  67.1673760   5.6059670   9.0715820  65.9317710   4.7766270
   9.7138050  65.2310870   4.8898440   9.5965170  66.7116150   4.5963160
  10.8453440  66.7312610   7.9802330  11.1809680  67.3179300   8.6580250
   9.9253780  66.6005320   8.2100120   6.6742020  66.7803940  11.1490390
   6.3538890  66.0613180  11.6936080   6.0000380  67.4559010  11.2226450
   9.8895620  57.0130100   6.5127190  10.2576440  56.1925310   6.8406760
   9.0293820  57.0731990   6.9282840   6.8497610  59.6669690   6.7365160
   7.3482860  60.1415510   7.4017010   6.9920560  58.7433210   6.9435190
  14.0564470  55.8837650   7.5793550  13.5538070  56.6243050   7.9187360
  14.8721130  56.2721650   7.2630340  14.3512060  68.2979680   2.7009170
  14.4759480  69.1210850   3.1732980  15.2177620  68.0870410   2.3533320
   1.8229590  70.3910890   2.3726300   2.5592070  69.8426350   2.6434870
   2.2070510  71.2566900   2.2332290   9.6652500  65.6836830  11.5087290
   9.0590660  65.7068430  10.7683040   9.3606610  64.9519870  12.0454540
  11.0952870  69.4117120  10.1196700  12.0474620  69.3275140  10.0696940
  10.9481090  70.0758830  10.7930490   5.6023620  63.4701410  10.0383450
   4.8369290  64.0386410   9.9538120   5.7839580  63.1777620   9.1451680
  12.7446970  65.2006740  10.5958470  13.4856440  65.5382500  10.0925930
  11.9819650  65.3698800  10.0428240   2.5214570  58.7852110   9.3672490
   1.9911030  58.2943060   8.7395830   3.1902640  59.2136310   8.8330420
  11.4192630  63.2521570   9.1313680  11.8333650  63.4066650   9.9804100
  10.4843630  63.3776790   9.2939460  11.8914800  60.5917730  11.1352830
  12.4735570  59.8370050  11.0473310  12.0676570  61.1225170  10.3584310
   3.0086870  55.7514480   9.4469780   2.9143740  55.1335230   8.7220650
   2.4284260  56.4780770   9.2199690   5.7748310  54.3087720   6.4797170
   5.3265610  54.3311980   5.6342720   5.1413510  53.9106740   7.0767470
   6.1807860  63.2042050   7.1009610   6.5995970  64.0474780   6.9285850
   5.2616490  63.3414090   6.8716390   8.5171760  60.9358230   8.4847450
   8.6367970  60.3399370   9.2242290   9.3765760  60.9727920   8.0648750
  10.8559660  61.4895420   7.0609960  10.3294880  62.0138040   6.4575100
  11.1991000  62.1222810   7.6919690   4.0315280  69.5095060   8.2167340
   3.4936370  70.2341120   7.8976040   4.2849240  69.0325400   7.4264680
   5.2840530  57.4779580   9.7423270   5.8740220  57.1695430  10.4301090
   4.4660770  57.0059330   9.8983170  10.1033960  57.0945390   9.9756290
   9.4149480  56.4326930   9.9106280  10.8239980  56.6483660  10.4204750
   6.8877490  70.7446270   8.4753990   6.8136190  71.6481410   8.7826360
   5.9856330  70.4258170   8.4476060  14.4157170  68.4408450   8.8046550
  13.8159160  68.5001010   8.0610470  14.5451070  67.5013430   8.9343400
  13.1008810  65.1660430   6.9022710  12.2868650  65.5957590   7.1648500
  13.5083010  65.7778840   6.2891760  14.4499210  60.3048630   8.4291930
  14.2185300  60.0761380   7.5289880  14.7103760  61.2248180   8.3836820
  12.8887280  55.5305060  11.2071630  13.7657460  55.5388460  11.5905630
  12.9008120  54.7935900  10.5963980  14.5140270  59.4674470   5.6179200
  13.5642980  59.4338010   5.7324190  14.6953280  60.3774580   5.3828970
  13.6003400  53.2163030   7.0272740  14.2375620  53.8297170   7.3931930
  13.7478290  53.2523690   6.0821970   4.7653460  67.9056530   6.1791330
   4.5244820  68.1731090   5.2921850   5.7056100  68.0762260   6.2342190
   6.9707880  54.3689220   9.9347840   6.9096770  54.9611050  10.6843250
   7.9108260  54.2615180   9.7898100   9.6082440  54.0259280   9.5740130
  10.2222850  54.3438570   8.9121210  10.1532000  53.5407870  10.1935990
  16.0257620  69.9250910   6.9801970  15.5315900  70.3219780   6.2629100
  15.4170910  69.3000120   7.3739250  10.3490480  52.5891420   5.9009420
   9.4750320  52.9226530   5.6982350  10.2401230  52.1164600   6.7261290
  11.2562460  54.7962290   7.2851140  10.9275820  53.9814050   6.9052870
  12.2044760  54.7532100   7.1616830  13.7097070  70.5674330   4.2588710
  13.2500040  71.3190140   3.8846730  13.0809530  69.8480800   4.2003510
   4.1392790  68.8762570   3.4336840   4.6557810  68.2649930   2.9085100
   4.7890170  69.3791350   3.9247850   6.8788290  69.7671060   4.2605820
   7.1666100  69.5125360   3.3838830   7.3911510  69.2148420   4.8511390
   8.0965300  53.5061260   4.8402330   7.3137090  53.9806760   5.1199090
   7.8028230  52.6016090   4.7315510  12.6486370  54.2084360   2.8851420
  13.0894460  54.1529460   2.0373020  12.3793960  55.1242370   2.9561600
   6.9460650  70.6887160  11.6274020   7.8727960  70.4531430  11.6709980
   6.9311080  71.5159160  11.1460050   4.1324260  53.3531910  11.3915900
   3.8508530  53.8565510  10.6276720   4.5143960  52.5553660  11.0258030
  10.7339720  52.7685490  11.9696370  10.6205170  53.0880100  12.8647890
  11.5509460  53.1698000  11.6733650  13.5138210  69.9157020  11.4515060
  14.3063530  69.4206250  11.2441020  13.8071360  70.5947160  12.0590670
   9.6397870  42.0134470  76.2048560   9.5591920  41.0989080  75.9340270
   9.2262290  42.5101540  75.4988270   7.7715910  43.7913490  78.0857830
   6.9958010  43.3113930  78.3756400   8.4228840  43.1119140  77.9113990
  11.7923340  48.1973680  76.8656960  11.3304870  47.4260920  77.1944130
  12.6048890  48.2239750  77.3709410   8.0186650  50.4831690  76.4860950
   7.3998090  50.9389190  75.9155390   8.8738430  50.6383150  76.0850650
   7.2124900  46.4670680  78.0927990   7.1433180  45.5260620  77.9317120
   7.9744760  46.5572090  78.6650560   8.2430070  39.2741060  78.3196920
   8.6194890  38.4012940  78.2070590   8.1449580  39.6099760  77.4287360
   2.3735080  37.6466690  73.7814360   2.4801830  38.5470420  74.0883120
   1.4627440  37.5984660  73.4909010  12.0254190  36.7691500  75.2525260
  12.8463810  36.2788070  75.2950740  12.0588270  37.3589160  76.0057100
   4.2142810  40.6153060  78.1139540   4.7221030  41.1134030  78.7544560
   4.7456050  39.8388260  77.9378900   8.8850000  45.3670930  73.8792860
   8.2667270  45.8320380  73.3155580   9.3973250  46.0598410  74.2962370
  12.2615670  38.7091880  78.0252800  11.5571240  38.9976770  78.6055910
  12.6227830  39.5191990  77.6652360  15.3302590  38.1546670  78.4162010
  14.3827500  38.1885650  78.5477440  15.6552580  38.9685620  78.8011370
   5.8622130  34.4543850  76.7118000   6.1697110  33.8990740  75.9953500
   4.9322830  34.5888310  76.5290990  12.7082610  46.8927360  74.0915630
  12.5978940  45.9501690  74.2165050  12.7050860  47.2543000  74.9778390
   8.2502890  42.5192680  73.4478120   7.3232170  42.4530060  73.6766590
   8.4027710  43.4572810  73.3333360   8.2371970  38.7909680  70.4445280
   7.2975640  38.9523640  70.5297740   8.5555230  39.5095360  69.8981270
  12.2800180  44.0812980  73.9513370  11.6612600  43.7432530  73.3039670
  12.2624630  43.4372740  74.6592560   3.8559530  43.0457420  76.2297850
   3.4516530  42.3334670  75.7343750   3.9422650  42.7010660  77.1185890
   4.3241230  46.7324980  78.3937060   4.0269520  46.1270450  77.7144840
   5.2741050  46.7702290  78.2826420  10.4564880  43.3199790  70.9586120
  10.8958160  42.4822220  70.8123940  11.1693300  43.9529190  71.0450260
   8.5660260  48.2595860  74.9267360   9.0056170  49.0020190  74.5122750
   8.5047150  48.5022430  75.8506320  14.0382020  34.5742600  69.2727160
  13.7254680  34.6669430  70.1726230  14.7994490  35.1523630  69.2224590
  11.2330440  51.2464980  72.2830370  11.0731580  50.9567920  73.1812200
  11.0677150  50.4705110  71.7475600   3.7118820  51.0263510  74.0601990
   3.5361300  50.1099050  73.8469790   2.8574560  51.3850800  74.2999790
  10.9356570  48.7552540  70.8428370  10.2421730  48.7529830  70.1830650
  11.6779430  48.3311860  70.4122540  10.5006500  50.3815250  74.9176860
  10.9563450  49.6004630  75.2315480  10.8399020  51.0922070  75.4618040
   3.0227820  35.2837470  77.1128170   2.5795970  36.0647010  76.7812690
   3.5812810  35.6067360  77.8199110   6.1386640  34.9048170  71.9934000
   5.5140820  34.9008040  72.7187310   6.0516760  34.0379130  71.5969970
   2.8142040  40.4071040  74.8409420   2.5882960  40.1908210  75.7456040
   2.0334570  40.8399500  74.4955390  10.0439800  40.4134410  73.4400070
   9.4448690  41.1370210  73.2563690  10.5919410  40.3511190  72.6576520
   8.6504670  39.0497950  75.4703350   9.0434240  39.3670150  74.6572040
   9.0121520  38.1709830  75.5847870   5.6737200  38.3157900  77.9706620
   5.6773260  37.8747850  77.1211160   6.5688320  38.6375230  78.0778440
   5.7357350  39.3169980  70.9613380   5.8570170  39.2756460  71.9099200
   5.3505860  40.1794130  70.8060110   4.7478850  41.6271120  70.3596680
   4.1795750  41.1789370  69.7332590   5.4567850  41.9863900  69.8261830
   2.2926330  45.6229310  72.6323090   1.5188590  45.0826930  72.4721810
   3.0220960  45.1035920  72.2940850  13.0514310  44.6194670  78.4249480
  13.7713430  45.1149960  78.0345590  12.8496130  43.9412560  77.7803350
   8.5124250  36.0132630  72.5678870   7.6988860  35.5145800  72.4924180
   8.3186200  36.8530880  72.1515220  11.2272640  40.3852280  70.8641030
  12.1152260  40.6969510  70.6892370  11.1977730  39.5124530  70.4721610
   2.3363730  45.2909690  76.2701900   2.8542400  44.4877950  76.2158790
   1.8847750  45.2288830  77.1118730   7.2233230  46.5575970  71.5429200
   7.5648930  47.3018200  71.0472520   6.3945940  46.8707090  71.9054030
  13.4986910  41.6964120  70.3320890  13.4150630  42.1278340  69.4817330
  14.2181100  42.1562470  70.7647710  14.5274160  48.5506380  73.0603020
  13.8850320  47.8962000  73.3346740  14.1404820  48.9561470  72.2843690
  10.1060640  45.8791810  76.9074710  10.4584460  45.2819940  76.2476080
   9.2222970  45.5536040  77.0782960   6.1923920  46.6389500  74.3145120
   6.8795050  47.1858710  74.6952710   5.4056340  47.1830230  74.3494730
   5.4951130  43.6435530  73.9270480   5.9513910  44.4540780  74.1530670
   5.1439340  43.3258670  74.7588970  12.9171540  47.4422840  69.5979370
  12.6909120  46.7253280  70.1904010  12.5267740  47.1935280  68.7601120
  12.4987790  45.3594780  71.2593530  12.2109490  45.8207470  72.0471410
  13.2939960  44.8992550  71.5277750   4.7156190  48.8520900  71.1897500
   4.7066290  49.5850590  70.5742010   3.7954550  48.6052480  71.2824460
  13.2557650  37.1943550  72.4188710  12.6270810  37.2989220  71.7046940
  12.7609570  37.4140330  73.2082590   7.7015790  48.9149140  69.8522690
   7.8027770  48.7113130  68.9224670   6.8017530  48.6607420  70.0570470
   5.2241680  39.4729500  73.8346590   4.5157830  39.9415840  74.2760200
   5.5086160  38.8151510  74.4691780   9.2557110  36.1980160  75.2742380
   9.1324890  36.2166290  74.3251890  10.2041670  36.2459100  75.3940780
   6.3433900  51.4335460  74.5470360   6.5975400  51.3956850  73.6249730
   5.3946380  51.3068790  74.5398610   3.4276700  37.7814580  71.2097300
   4.2767230  38.2184730  71.1437490   3.0607970  38.0934840  72.0369360
  12.3486480  42.3527340  76.1228870  11.4076620  42.3677570  76.2976560
  12.6630550  41.5663300  76.5689170   2.3268120  44.0346940  69.6832830
   3.0931390  43.9228300  70.2458260   2.4042810  43.3384910  69.0309600
  14.3512060  49.5236190  77.7983130  14.4759480  50.3467360  78.2706940
  15.2177620  49.3126920  77.4507280   1.8229590  51.6167400  77.4700260
   2.5592070  51.0682860  77.7408830   2.2070510  52.4823410  77.3306250
   4.9331900  50.7897710  69.2925830   5.7260510  51.0786540  68.8407620
   4.4136250  50.3589880  68.6138310  13.9862070  50.0167840  70.7162570
  13.7003580  49.6032980  69.9016750  13.7881620  50.9455550  70.5963090
   5.4509300  46.0101120  69.1568180   5.3459940  45.3953470  69.8829560
   5.2833520  45.4867010  68.3731190   8.6912030  45.0721150  69.7610170
   8.1422130  45.5190450  70.4052910   9.3131290  44.5670400  70.2847840
   4.3587150  44.0312070  71.6575470   4.7803570  43.8651940  72.5006860
   4.4837990  43.2212300  71.1630610   6.8714790  43.0549680  68.9052570
   7.3920450  42.3398700  68.5393720   7.5183190  43.6935550  69.2053080
   3.2546050  40.1045300  68.6033630   3.0535110  39.2412660  68.9646970
   3.0838100  40.0178660  67.6655230  10.7334360  34.9153530  71.1320510
  11.0136650  34.0721430  71.4879930   9.9600090  35.1476640  71.6459260
   2.0528850  37.2045920  68.5911510   2.3554750  37.2113350  67.6830660
   2.7923440  36.8543780  69.0879170   5.2713780  36.1480540  69.5767710
   4.9235780  35.4704530  68.9970160   5.4726550  35.6870050  70.3911100
   7.4362820  51.1361290  71.1954310   8.3313610  51.4746260  71.2173070
   7.4680450  50.4140700  70.5678590   2.8866700  47.6286380  74.5363540
   2.5862240  47.5051350  75.4367450   2.7804190  46.7694970  74.1279270
  15.6558620  47.4082780  69.2390220  14.8251580  47.4759430  69.7097450
  15.8330450  48.2986900  68.9357080  15.1115080  44.1530260  71.7424420
  15.8733990  44.7226910  71.8484110  15.1269450  43.5857460  72.5132730
  16.1175050  45.0080360  76.5866350  16.4883880  44.2247680  76.1802320
  16.7576980  45.6969460  76.4083650  15.1634250  44.4464630  68.8996940
  15.4383090  45.3543510  68.7716160  14.9744990  44.3827160  69.8358930
  11.5609860  37.4709480  70.1950570  11.9794740  37.2840460  69.3547230
  11.2545920  36.6188530  70.5053500  15.0599590  42.3833620  73.8926370
  14.6843190  41.6161550  73.4607660  14.3302710  42.7656320  74.3801300
  14.3350550  40.6091110  77.1933610  14.8588030  40.1153760  76.5623780
  14.9209970  40.7441470  77.9381180  13.8250520  39.8664460  73.1326020
  14.3209640  39.6335330  73.9174900  13.6266590  39.0276300  72.7163660
  15.2537680  38.5025410  75.6663700  15.1436960  38.3481450  76.6045970
  16.0145270  37.9746350  75.4239110  16.1427950  36.3333330  68.9069840
  17.0677260  36.2014510  68.6988130  16.1203740  36.4126150  69.8606290
  16.2166440  37.1043990  71.5326550  15.4217940  37.0389110  72.0619460
  16.4209720  38.0394630  71.5211900  13.1584860  51.1435540  75.5264940
  13.7543930  50.8220110  74.8499360  13.4163010  50.6707360  76.3178210
  12.6486370  35.4340870  77.9825380  13.0894460  35.3785970  77.1346980
  12.3793960  36.3498880  78.0535560  14.5124940  35.0656110  75.9934200
  14.4513340  34.1217330  75.8465220  15.2916970  35.1736200  76.5387660
   5.9819520  37.1504520  75.4492320   5.1694030  36.7761410  75.1088200
   6.4861160  36.3949600  75.7513510  10.4844500  33.8146970  76.6875390
  11.0873870  34.3867180  77.1623910   9.7437490  34.3786410  76.4649290
  13.6279100  34.2168530  71.9615670  13.8229730  35.1151980  72.2283100
  12.8408970  33.9855610  72.4548620   1.8130860  35.5629300  70.9991980
   2.3423620  34.7759100  70.8699930   2.4459180  36.2420490  71.2327510
   4.0068700  35.3004440  74.0537370   3.3771440  34.5991750  74.2207500
   3.4673840  36.0608570  73.8370530  15.1805710  51.4569240  73.7222230
  15.3557900  50.7706980  73.0783150  14.4827280  51.9816290  73.3298900
   3.0233360  51.8464080  71.2757540   3.7552180  51.5623360  70.7281430
   3.2827030  51.6077360  72.1656920   2.1848150  47.9628810  71.2803870
   1.5557030  48.4313910  71.8289700   2.2995980  47.1178030  71.7150060
   9.6397870  42.0134470  57.4305070   9.5591920  41.0989080  57.1596780
   9.2262290  42.5101540  56.7244780   7.7715910  43.7913490  59.3114340
   6.9958010  43.3113930  59.6012910   8.4228840  43.1119140  59.1370500
  11.7923340  48.1973680  58.0913470  11.3304870  47.4260920  58.4200640
  12.6048890  48.2239750  58.5965920   1.7683000  48.1373390  60.3848120
   2.0711040  47.2471130  60.2058340   2.5126590  48.6943610  60.1570370
   8.0186650  50.4831690  57.7117460   7.3998090  50.9389190  57.1411900
   8.8738430  50.6383150  57.3107160   7.2124900  46.4670680  59.3184500
   7.1433180  45.5260620  59.1573630   7.9744760  46.5572090  59.8907070
   8.2430070  39.2741060  59.5453430   8.6194890  38.4012940  59.4327100
   8.1449580  39.6099760  58.6543870   2.3735080  37.6466690  55.0070870
   2.4801830  38.5470420  55.3139630   1.4627440  37.5984660  54.7165520
  12.0254190  36.7691500  56.4781770  12.8463810  36.2788070  56.5207250
  12.0588270  37.3589160  57.2313610   4.2142810  40.6153060  59.3396050
   4.7221030  41.1134030  59.9801070   4.7456050  39.8388260  59.1635410
  16.3153740  38.7858250  63.0425400  15.6105910  39.1739960  62.5240510
  16.5811660  39.4808540  63.6446330   2.4978910  35.2551620  63.6059470
   2.4997350  35.7724010  62.8005370   1.6683220  34.7781800  63.5829400
   8.8850000  45.3670930  55.1049370   8.2667270  45.8320380  54.5412090
   9.3973250  46.0598410  55.5218880   3.7481760  44.8946800  61.7832970
   3.4151140  45.5215720  62.4254040   3.9248440  45.4208680  61.0034640
  12.2615670  38.7091880  59.2509310  11.5571240  38.9976770  59.8312420
  12.6227830  39.5191990  58.8908870   2.9600860  46.8627600  63.5982150
   3.5774860  47.5378680  63.3166600   2.0993980  47.2715580  63.5069650
  13.8778450  48.3267010  61.5136790  13.1941970  48.9966120  61.5053460
  14.4172740  48.5247660  60.7481650  15.3302590  38.1546670  59.6418520
  14.3827500  38.1885650  59.7733950  15.6552580  38.9685620  60.0267880
   5.8622130  34.4543850  57.9374510   6.1697110  33.8990740  57.2210010
   4.9322830  34.5888310  57.7547500  11.4137190  50.1711140  60.2281970
  11.4264350  49.7673430  59.3604230  10.8612410  50.9458430  60.1243400
  12.7082610  46.8927360  55.3172140  12.5978940  45.9501690  55.4421560
  12.7050860  47.2543000  56.2034900  10.8122630  45.0740980  61.5564580
  11.2291420  44.8601090  60.7218040  11.5362450  45.3313770  62.1273200
   8.2502890  42.5192680  54.6734630   7.3232170  42.4530060  54.9023100
   8.4027710  43.4572810  54.5589870   8.2371970  38.7909680  51.6701790
   7.2975640  38.9523640  51.7554250   8.5555230  39.5095360  51.1237780
  14.7584730  43.4728200  61.6480820  13.9303360  43.5421290  61.1730950
  15.3535210  44.0582510  61.1796650  12.2800180  44.0812980  55.1769880
  11.6612600  43.7432530  54.5296180  12.2624630  43.4372740  55.8849070
  11.7226740  40.2597520  62.5935690  11.3097920  41.0851230  62.8475680
  10.9902690  39.6742560  62.4012050   3.8559530  43.0457420  57.4554360
   3.4516530  42.3334670  56.9600260   3.9422650  42.7010660  58.3442400
   4.3241230  46.7324980  59.6193570   4.0269520  46.1270450  58.9401350
   5.2741050  46.7702290  59.5082930   2.5688150  39.8200630  61.2353400
   3.1202740  39.9295970  60.4606650   3.0831660  40.1938230  61.9508630
  12.4126840  50.3056850  63.2816670  11.9357400  51.1129040  63.0889280
  11.7288630  49.6535180  63.4342880   3.4159660  46.4706670  66.2701370
   2.5188190  46.6946640  66.5174770   3.4412530  46.5941610  65.3212770
  10.4564880  43.3199790  52.1842630  10.8958160  42.4822220  52.0380450
  11.1693300  43.9529190  52.2706770   8.5660260  48.2595860  56.1523870
   9.0056170  49.0020190  55.7379260   8.5047150  48.5022430  57.0762830
   4.0411230  49.2841690  67.0543890   4.0126660  49.6884640  66.1872320
   3.8776200  48.3552050  66.8915490  14.0382020  34.5742600  50.4983670
  13.7254680  34.6669430  51.3982740  14.7994490  35.1523630  50.4481100
  15.9926050  50.0668790  68.3508060  16.4685770  50.5451680  69.0297140
  16.6133210  49.9986280  67.6253560  15.3959300  47.2581640  65.5108070
  15.5222360  47.0193520  64.5925250  15.4380680  46.4266180  65.9830150
   9.2576040  50.9609640  64.0802880   9.7720710  50.8717650  64.8825310
   8.4145120  51.3069340  64.3730790  11.2330440  51.2464980  53.5086880
  11.0731580  50.9567920  54.4068710  11.0677150  50.4705110  52.9732110
   3.7118820  51.0263510  55.2858500   3.5361300  50.1099050  55.0726300
   2.8574560  51.3850800  55.5256300  10.9356570  48.7552540  52.0684880
  10.2421730  48.7529830  51.4087160  11.6779430  48.3311860  51.6379050
  10.5006500  50.3815250  56.1433370  10.9563450  49.6004630  56.4571990
  10.8399020  51.0922070  56.6874550  15.2483310  39.3114100  66.4757810
  14.6327580  39.8193770  65.9473270  14.9279730  38.4112430  66.4183750
   3.0227820  35.2837470  58.3384680   2.5795970  36.0647010  58.0069200
   3.5812810  35.6067360  59.0455620   7.3097630  38.1505990  63.9420000
   6.8477000  38.3589010  64.7539940   6.9075740  37.3365340  63.6390670
  12.3102140  39.3714940  65.0716660  11.4595730  39.0720690  65.3925730
  12.1503930  39.6156950  64.1600480   9.4051850  40.8716690  67.1715450
   9.7305260  40.0380440  66.8317680  10.1932180  41.3945210  67.3193780
   6.1386640  34.9048170  53.2190510   5.5140820  34.9008040  53.9443820
   6.0516760  34.0379130  52.8226480   5.0603720  35.8284800  60.1974280
   5.3576050  36.7347630  60.1166300   5.6089280  35.3403580  59.5833850
   2.8142040  40.4071040  56.0665930   2.5882960  40.1908210  56.9712550
   2.0334570  40.8399500  55.7211900  10.0439800  40.4134410  54.6656580
   9.4448690  41.1370210  54.4820200  10.5919410  40.3511190  53.8833030
   5.2541250  41.3056620  66.7326200   5.1584850  40.3651350  66.5826600
   6.0973230  41.5271690  66.3374270   8.6504670  39.0497950  56.6959860
   9.0434240  39.3670150  55.8828550   9.0121520  38.1709830  56.8104380
   6.9596840  37.8005260  67.9556720   6.2695160  37.6077460  68.5902810
   7.7029140  38.0839900  68.4881020   9.2359810  41.6403700  60.7910640
   8.5040930  42.1490510  61.1400740   8.8384150  40.8233680  60.4899420
   5.6737200  38.3157900  59.1963130   5.6773260  37.8747850  58.3467670
   6.5688320  38.6375230  59.3034950   5.7357350  39.3169980  52.1869890
   5.8570170  39.2756460  53.1355710   5.3505860  40.1794130  52.0316620
   9.6985720  37.0937380  60.2033580   9.7158460  37.5446030  61.0475430
   9.4501300  36.1943020  60.4167020   4.7478850  41.6271120  51.5853190
   4.1795750  41.1789370  50.9589100   5.4567850  41.9863900  51.0518340
  13.1256470  34.5069560  66.0419960  13.4502240  33.7759220  66.5677940
  13.1612980  34.1883200  65.1400950   5.9745170  42.3759680  60.9428540
   6.3415300  41.9018250  61.6889880   5.7850230  43.2501250  61.2836880
   3.7644540  41.4168320  63.2612750   3.4601610  42.2960300  63.4863110
   4.7191000  41.4768110  63.2970190   2.2926330  45.6229310  53.8579600
   1.5188590  45.0826930  53.6978320   3.0220960  45.1035920  53.5197360
  13.0514310  44.6194670  59.6505990  13.7713430  45.1149960  59.2602100
  12.8496130  43.9412560  59.0059860   8.5124250  36.0132630  53.7935380
   7.6988860  35.5145800  53.7180690   8.3186200  36.8530880  53.3771730
   8.4333110  44.6903730  65.5374990   8.3670420  43.7699400  65.2832580
   7.8038250  44.7879170  66.2519630  11.2272640  40.3852280  52.0897540
  12.1152260  40.6969510  51.9148880  11.1977730  39.5124530  51.6978120
   2.3363730  45.2909690  57.4958410   2.8542400  44.4877950  57.4415300
   1.8847750  45.2288830  58.3375240   7.2233230  46.5575970  52.7685710
   7.5648930  47.3018200  52.2729030   6.3945940  46.8707090  53.1310540
   3.0221390  42.7155300  67.2923660   2.7221530  42.8612480  66.3951480
   3.7932630  42.1560590  67.1997050   8.3649840  47.5124300  65.2878790
   8.3794380  46.5805260  65.0697700   7.6574940  47.5984060  65.9268560
  13.4986910  41.6964120  51.5577400  13.4150630  42.1278340  50.7073840
  14.2181100  42.1562470  51.9904220  14.5761050  44.1531640  64.6347370
  13.8509240  44.7460420  64.4376760  15.1036510  44.1455180  63.8360740
  14.5274160  48.5506380  54.2859530  13.8850320  47.8962000  54.5603250
  14.1404820  48.9561470  53.5100200  10.1060640  45.8791810  58.1331220
  10.4584460  45.2819940  57.4732590   9.2222970  45.5536040  58.3039470
   6.1923920  46.6389500  55.5401630   6.8795050  47.1858710  55.9209220
   5.4056340  47.1830230  55.5751240   5.4951130  43.6435530  55.1526990
   5.9513910  44.4540780  55.3787180   5.1439340  43.3258670  55.9845480
   7.7983740  49.1541870  62.3819290   8.4425960  49.3601250  63.0592710
   8.1613180  48.3930270  61.9290140   9.0715820  47.1574220  61.0996740
   9.7138050  46.4567380  61.2128910   9.5965170  47.9372660  60.9193630
  12.9171540  47.4422840  50.8235880  12.6909120  46.7253280  51.4160520
  12.5267740  47.1935280  49.9857630  10.8453440  47.9569120  64.3032800
  11.1809680  48.5435810  64.9810720   9.9253780  47.8261830  64.5330590
  12.4987790  45.3594780  52.4850040  12.2109490  45.8207470  53.2727920
  13.2939960  44.8992550  52.7534260   6.6742020  48.0060450  67.4720860
   6.3538890  47.2869690  68.0166550   6.0000380  48.6815520  67.5456920
   4.7156190  48.8520900  52.4154010   4.7066290  49.5850590  51.7998520
   3.7954550  48.6052480  52.5080970   9.8895620  38.2386610  62.8357660
  10.2576440  37.4181820  63.1637230   9.0293820  38.2988500  63.2513310
  13.2557650  37.1943550  53.6445220  12.6270810  37.2989220  52.9303450
  12.7609570  37.4140330  54.4339100   7.7015790  48.9149140  51.0779200
   7.8027770  48.7113130  50.1481180   6.8017530  48.6607420  51.2826980
   5.2241680  39.4729500  55.0603100   4.5157830  39.9415840  55.5016710
   5.5086160  38.8151510  55.6948290   6.8497610  40.8926200  63.0595630
   7.3482860  41.3672020  63.7247480   6.9920560  39.9689720  63.2665660
   9.2557110  36.1980160  56.4998890   9.1324890  36.2166290  55.5508400
  10.2041670  36.2459100  56.6197290   6.3433900  51.4335460  55.7726870
   6.5975400  51.3956850  54.8506240   5.3946380  51.3068790  55.7655120
   3.4276700  37.7814580  52.4353810   4.2767230  38.2184730  52.3694000
   3.0607970  38.0934840  53.2625870  14.0564470  37.1094160  63.9024020
  13.5538070  37.8499560  64.2417830  14.8721130  37.4978160  63.5860810
  12.3486480  42.3527340  57.3485380  11.4076620  42.3677570  57.5233070
  12.6630550  41.5663300  57.7945680   2.3268120  44.0346940  50.9089340
   3.0931390  43.9228300  51.4714770   2.4042810  43.3384910  50.2566110
  14.3512060  49.5236190  59.0239640  14.4759480  50.3467360  59.4963450
  15.2177620  49.3126920  58.6763790   1.8229590  51.6167400  58.6956770
   2.5592070  51.0682860  58.9665340   2.2070510  52.4823410  58.5562760
   4.9331900  50.7897710  50.5182340   5.7260510  51.0786540  50.0664130
   4.4136250  50.3589880  49.8394820   9.6652500  46.9093340  67.8317760
   9.0590660  46.9324940  67.0913510   9.3606610  46.1776380  68.3685010
  11.0952870  50.6373630  66.4427170  12.0474620  50.5531650  66.3927410
  10.9481090  51.3015340  67.1160960  13.9862070  50.0167840  51.9419080
  13.7003580  49.6032980  51.1273260  13.7881620  50.9455550  51.8219600
   5.4509300  46.0101120  50.3824690   5.3459940  45.3953470  51.1086070
   5.2833520  45.4867010  49.5987700   5.6023620  44.6957920  66.3613920
   4.8369290  45.2642920  66.2768590   5.7839580  44.4034130  65.4682150
   8.6912030  45.0721150  50.9866680   8.1422130  45.5190450  51.6309420
   9.3131290  44.5670400  51.5104350  12.7446970  46.4263250  66.9188940
  13.4856440  46.7639010  66.4156400  11.9819650  46.5955310  66.3658710
   4.3587150  44.0312070  52.8831980   4.7803570  43.8651940  53.7263370
   4.4837990  43.2212300  52.3887120   2.5214570  40.0108620  65.6902960
   1.9911030  39.5199570  65.0626300   3.1902640  40.4392820  65.1560890
   6.8714790  43.0549680  50.1309080   7.3920450  42.3398700  49.7650230
   7.5183190  43.6935550  50.4309590  11.4192630  44.4778080  65.4544150
  11.8333650  44.6323160  66.3034570  10.4843630  44.6033300  65.6169930
  11.8914800  41.8174240  67.4583300  12.4735570  41.0626560  67.3703780
  12.0676570  42.3481680  66.6814780   3.0086870  36.9770990  65.7700250
   2.9143740  36.3591740  65.0451120   2.4284260  37.7037280  65.5430160
   5.7748310  35.5344230  62.8027640   5.3265610  35.5568490  61.9573190
   5.1413510  35.1363250  63.3997940   6.1807860  44.4298560  63.4240080
   6.5995970  45.2731290  63.2516320   5.2616490  44.5670600  63.1946860
   8.5171760  42.1614740  64.8077920   8.6367970  41.5655880  65.5472760
   9.3765760  42.1984430  64.3879220  10.8559660  42.7151930  63.3840430
  10.3294880  43.2394550  62.7805570  11.1991000  43.3479320  64.0150160
   3.2546050  40.1045300  49.8290140   3.0535110  39.2412660  50.1903480
   3.0838100  40.0178660  48.8911740   4.0315280  50.7351570  64.5397810
   3.4936370  51.4597630  64.2206510   4.2849240  50.2581910  63.7495150
   5.2840530  38.7036090  66.0653740   5.8740220  38.3951940  66.7531560
   4.4660770  38.2315840  66.2213640  10.1033960  38.3201900  66.2986760
   9.4149480  37.6583440  66.2336750  10.8239980  37.8740170  66.7435220
  10.7334360  34.9153530  52.3577020  11.0136650  34.0721430  52.7136440
   9.9600090  35.1476640  52.8715770   2.0528850  37.2045920  49.8168020
   2.3554750  37.2113350  48.9087170   2.7923440  36.8543780  50.3135680
   6.8877490  51.9702780  64.7984460   6.8136190  52.8737920  65.1056830
   5.9856330  51.6514680  64.7706530   5.2713780  36.1480540  50.8024220
   4.9235780  35.4704530  50.2226670   5.4726550  35.6870050  51.6167610
   7.4362820  51.1361290  52.4210820   8.3313610  51.4746260  52.4429580
   7.4680450  50.4140700  51.7935100   2.8866700  47.6286380  55.7620050
   2.5862240  47.5051350  56.6623960   2.7804190  46.7694970  55.3535780
  14.4157170  49.6664960  65.1277020  13.8159160  49.7257520  64.3840940
  14.5451070  48.7269940  65.2573870  15.6558620  47.4082780  50.4646730
  14.8251580  47.4759430  50.9353960  15.8330450  48.2986900  50.1613590
  15.1115080  44.1530260  52.9680930  15.8733990  44.7226910  53.0740620
  15.1269450  43.5857460  53.7389240  16.1175050  45.0080360  57.8122860
  16.4883880  44.2247680  57.4058830  16.7576980  45.6969460  57.6340160
  13.1008810  46.3916940  63.2253180  12.2868650  46.8214100  63.4878970
  13.5083010  47.0035350  62.6122230  15.1634250  44.4464630  50.1253450
  15.4383090  45.3543510  49.9972670  14.9744990  44.3827160  51.0615440
  11.5609860  37.4709480  51.4207080  11.9794740  37.2840460  50.5803740
  11.2545920  36.6188530  51.7310010  15.0599590  42.3833620  55.1182880
  14.6843190  41.6161550  54.6864170  14.3302710  42.7656320  55.6057810
  14.4499210  41.5305140  64.7522400  14.2185300  41.3017890  63.8520350
  14.7103760  42.4504690  64.7067290  12.8887280  36.7561570  67.5302100
  13.7657460  36.7644970  67.9136100  12.9008120  36.0192410  66.9194450
  14.3350550  40.6091110  58.4190120  14.8588030  40.1153760  57.7880290
  14.9209970  40.7441470  59.1637690  14.5140270  40.6930980  61.9409670
  13.5642980  40.6594520  62.0554660  14.6953280  41.6031090  61.7059440
  13.8250520  39.8664460  54.3582530  14.3209640  39.6335330  55.1431410
  13.6266590  39.0276300  53.9420170  15.2537680  38.5025410  56.8920210
  15.1436960  38.3481450  57.8302480  16.0145270  37.9746350  56.6495620
  13.6003400  34.4419540  63.3503210  14.2375620  35.0553680  63.7162400
  13.7478290  34.4780200  62.4052440  16.1427950  36.3333330  50.1326350
  17.0677260  36.2014510  49.9244640  16.1203740  36.4126150  51.0862800
  16.2166440  37.1043990  52.7583060  15.4217940  37.0389110  53.2875970
  16.4209720  38.0394630  52.7468410  13.1584860  51.1435540  56.7521450
  13.7543930  50.8220110  56.0755870  13.4163010  50.6707360  57.5434720
   4.7653460  49.1313040  62.5021800   4.5244820  49.3987600  61.6152320
   5.7056100  49.3018770  62.5572660   6.9707880  35.5945730  66.2578310
   6.9096770  36.1867560  67.0073720   7.9108260  35.4871690  66.1128570
   9.6082440  35.2515790  65.8970600  10.2222850  35.5695080  65.2351680
  10.1532000  34.7664380  66.5166460  16.0257620  51.1507420  63.3032440
  15.5315900  51.5476290  62.5859570  15.4170910  50.5256630  63.6969720
  10.3490480  33.8147930  62.2239890   9.4750320  34.1483040  62.0212820
  10.2401230  33.3421110  63.0491760  11.2562460  36.0218800  63.6081610
  10.9275820  35.2070560  63.2283340  12.2044760  35.9788610  63.4847300
  13.7097070  51.7930840  60.5819180  13.2500040  52.5446650  60.2077200
  13.0809530  51.0737310  60.5233980   4.1392790  50.1019080  59.7567310
   4.6557810  49.4906440  59.2315570   4.7890170  50.6047860  60.2478320
   6.8788290  50.9927570  60.5836290   7.1666100  50.7381870  59.7069300
   7.3911510  50.4404930  61.1741860   8.0965300  34.7317770  61.1632800
   7.3137090  35.2063270  61.4429560   7.8028230  33.8272600  61.0545980
  12.6486370  35.4340870  59.2081890  13.0894460  35.3785970  58.3603490
  12.3793960  36.3498880  59.2792070  14.5124940  35.0656110  57.2190710
  14.4513340  34.1217330  57.0721730  15.2916970  35.1736200  57.7644170
   5.9819520  37.1504520  56.6748830   5.1694030  36.7761410  56.3344710
   6.4861160  36.3949600  56.9770020  10.4844500  33.8146970  57.9131900
  11.0873870  34.3867180  58.3880420   9.7437490  34.3786410  57.6905800
  13.6279100  34.2168530  53.1872180  13.8229730  35.1151980  53.4539610
  12.8408970  33.9855610  53.6805130   1.8130860  35.5629300  52.2248490
   2.3423620  34.7759100  52.0956440   2.4459180  36.2420490  52.4584020
   4.0068700  35.3004440  55.2793880   3.3771440  34.5991750  55.4464010
   3.4673840  36.0608570  55.0627040   6.9460650  51.9143670  67.9504490
   7.8727960  51.6787940  67.9940450   6.9311080  52.7415670  67.4690520
  15.1805710  51.4569240  54.9478740  15.3557900  50.7706980  54.3039660
  14.4827280  51.9816290  54.5555410   4.1324260  34.5788420  67.7146370
   3.8508530  35.0822020  66.9507190   4.5143960  33.7810170  67.3488500
   3.0233360  51.8464080  52.5014050   3.7552180  51.5623360  51.9537940
   3.2827030  51.6077360  53.3913430   2.1848150  47.9628810  52.5060380
   1.5557030  48.4313910  53.0546210   2.2995980  47.1178030  52.9406570
  10.7339720  33.9942000  68.2926840  10.6205170  34.3136610  69.1878360
  11.5509460  34.3954510  67.9964120  13.5138210  51.1413530  67.7745530
  14.3063530  50.6462760  67.5671490  13.8071360  51.8203670  68.3821140
   9.6397870  42.0134470  38.6561580   9.5591920  41.0989080  38.3853290
   9.2262290  42.5101540  37.9501290   7.7715910  43.7913490  40.5370850
   6.9958010  43.3113930  40.8269420   8.4228840  43.1119140  40.3627010
  11.7923340  48.1973680  39.3169980  11.3304870  47.4260920  39.6457150
  12.6048890  48.2239750  39.8222430   1.7683000  48.1373390  41.6104630
   2.0711040  47.2471130  41.4314850   2.5126590  48.6943610  41.3826880
   8.0186650  50.4831690  38.9373970   7.3998090  50.9389190  38.3668410
   8.8738430  50.6383150  38.5363670   7.2124900  46.4670680  40.5441010
   7.1433180  45.5260620  40.3830140   7.9744760  46.5572090  41.1163580
   8.2430070  39.2741060  40.7709940   8.6194890  38.4012940  40.6583610
   8.1449580  39.6099760  39.8800380   2.3735080  37.6466690  36.2327380
   2.4801830  38.5470420  36.5396140   1.4627440  37.5984660  35.9422030
  12.0254190  36.7691500  37.7038280  12.8463810  36.2788070  37.7463760
  12.0588270  37.3589160  38.4570120   4.2142810  40.6153060  40.5652560
   4.7221030  41.1134030  41.2057580   4.7456050  39.8388260  40.3891920
  16.3153740  38.7858250  44.2681910  15.6105910  39.1739960  43.7497020
  16.5811660  39.4808540  44.8702840   2.4978910  35.2551620  44.8315980
   2.4997350  35.7724010  44.0261880   1.6683220  34.7781800  44.8085910
   8.8850000  45.3670930  36.3305880   8.2667270  45.8320380  35.7668600
   9.3973250  46.0598410  36.7475390   3.7481760  44.8946800  43.0089480
   3.4151140  45.5215720  43.6510550   3.9248440  45.4208680  42.2291150
  12.2615670  38.7091880  40.4765820  11.5571240  38.9976770  41.0568930
  12.6227830  39.5191990  40.1165380   2.9600860  46.8627600  44.8238660
   3.5774860  47.5378680  44.5423110   2.0993980  47.2715580  44.7326160
  13.8778450  48.3267010  42.7393300  13.1941970  48.9966120  42.7309970
  14.4172740  48.5247660  41.9738160  15.3302590  38.1546670  40.8675030
  14.3827500  38.1885650  40.9990460  15.6552580  38.9685620  41.2524390
   5.8622130  34.4543850  39.1631020   6.1697110  33.8990740  38.4466520
   4.9322830  34.5888310  38.9804010  11.4137190  50.1711140  41.4538480
  11.4264350  49.7673430  40.5860740  10.8612410  50.9458430  41.3499910
  10.8122630  45.0740980  42.7821090  11.2291420  44.8601090  41.9474550
  11.5362450  45.3313770  43.3529710   8.2502890  42.5192680  35.8991140
   7.3232170  42.4530060  36.1279610   8.4027710  43.4572810  35.7846380
   8.2371970  38.7909680  32.8958300   7.2975640  38.9523640  32.9810760
   8.5555230  39.5095360  32.3494290  14.7584730  43.4728200  42.8737330
  13.9303360  43.5421290  42.3987460  15.3535210  44.0582510  42.4053160
  12.2800180  44.0812980  36.4026390  11.6612600  43.7432530  35.7552690
  12.2624630  43.4372740  37.1105580  11.7226740  40.2597520  43.8192200
  11.3097920  41.0851230  44.0732190  10.9902690  39.6742560  43.6268560
   3.8559530  43.0457420  38.6810870   3.4516530  42.3334670  38.1856770
   3.9422650  42.7010660  39.5698910   4.3241230  46.7324980  40.8450080
   4.0269520  46.1270450  40.1657860   5.2741050  46.7702290  40.7339440
   2.5688150  39.8200630  42.4609910   3.1202740  39.9295970  41.6863160
   3.0831660  40.1938230  43.1765140  12.4126840  50.3056850  44.5073180
  11.9357400  51.1129040  44.3145790  11.7288630  49.6535180  44.6599390
   3.4159660  46.4706670  47.4957880   2.5188190  46.6946640  47.7431280
   3.4412530  46.5941610  46.5469280  10.4564880  43.3199790  33.4099140
  10.8958160  42.4822220  33.2636960  11.1693300  43.9529190  33.4963280
   8.5660260  48.2595860  37.3780380   9.0056170  49.0020190  36.9635770
   8.5047150  48.5022430  38.3019340   4.0411230  49.2841690  48.2800400
   4.0126660  49.6884640  47.4128830   3.8776200  48.3552050  48.1172000
  14.0382020  34.5742600  31.7240180  13.7254680  34.6669430  32.6239250
  14.7994490  35.1523630  31.6737610  15.9926050  50.0668790  49.5764570
  16.4685770  50.5451680  50.2553650  16.6133210  49.9986280  48.8510070
  15.3959300  47.2581640  46.7364580  15.5222360  47.0193520  45.8181760
  15.4380680  46.4266180  47.2086660   9.2576040  50.9609640  45.3059390
   9.7720710  50.8717650  46.1081820   8.4145120  51.3069340  45.5987300
  11.2330440  51.2464980  34.7343390  11.0731580  50.9567920  35.6325220
  11.0677150  50.4705110  34.1988620   3.7118820  51.0263510  36.5115010
   3.5361300  50.1099050  36.2982810   2.8574560  51.3850800  36.7512810
  10.9356570  48.7552540  33.2941390  10.2421730  48.7529830  32.6343670
  11.6779430  48.3311860  32.8635560  10.5006500  50.3815250  37.3689880
  10.9563450  49.6004630  37.6828500  10.8399020  51.0922070  37.9131060
  15.2483310  39.3114100  47.7014320  14.6327580  39.8193770  47.1729780
  14.9279730  38.4112430  47.6440260   3.0227820  35.2837470  39.5641190
   2.5795970  36.0647010  39.2325710   3.5812810  35.6067360  40.2712130
   7.3097630  38.1505990  45.1676510   6.8477000  38.3589010  45.9796450
   6.9075740  37.3365340  44.8647180  12.3102140  39.3714940  46.2973170
  11.4595730  39.0720690  46.6182240  12.1503930  39.6156950  45.3856990
   9.4051850  40.8716690  48.3971960   9.7305260  40.0380440  48.0574190
  10.1932180  41.3945210  48.5450290   6.1386640  34.9048170  34.4447020
   5.5140820  34.9008040  35.1700330   6.0516760  34.0379130  34.0482990
   5.0603720  35.8284800  41.4230790   5.3576050  36.7347630  41.3422810
   5.6089280  35.3403580  40.8090360   2.8142040  40.4071040  37.2922440
   2.5882960  40.1908210  38.1969060   2.0334570  40.8399500  36.9468410
  10.0439800  40.4134410  35.8913090   9.4448690  41.1370210  35.7076710
  10.5919410  40.3511190  35.1089540   5.2541250  41.3056620  47.9582710
   5.1584850  40.3651350  47.8083110   6.0973230  41.5271690  47.5630780
   8.6504670  39.0497950  37.9216370   9.0434240  39.3670150  37.1085060
   9.0121520  38.1709830  38.0360890   6.9596840  37.8005260  49.1813230
   6.2695160  37.6077460  49.8159320   7.7029140  38.0839900  49.7137530
   9.2359810  41.6403700  42.0167150   8.5040930  42.1490510  42.3657250
   8.8384150  40.8233680  41.7155930   5.6737200  38.3157900  40.4219640
   5.6773260  37.8747850  39.5724180   6.5688320  38.6375230  40.5291460
   5.7357350  39.3169980  33.4126400   5.8570170  39.2756460  34.3612220
   5.3505860  40.1794130  33.2573130   9.6985720  37.0937380  41.4290090
   9.7158460  37.5446030  42.2731940   9.4501300  36.1943020  41.6423530
   4.7478850  41.6271120  32.8109700   4.1795750  41.1789370  32.1845610
   5.4567850  41.9863900  32.2774850  13.1256470  34.5069560  47.2676470
  13.4502240  33.7759220  47.7934450  13.1612980  34.1883200  46.3657460
   5.9745170  42.3759680  42.1685050   6.3415300  41.9018250  42.9146390
   5.7850230  43.2501250  42.5093390   3.7644540  41.4168320  44.4869260
   3.4601610  42.2960300  44.7119620   4.7191000  41.4768110  44.5226700
   2.2926330  45.6229310  35.0836110   1.5188590  45.0826930  34.9234830
   3.0220960  45.1035920  34.7453870  13.0514310  44.6194670  40.8762500
  13.7713430  45.1149960  40.4858610  12.8496130  43.9412560  40.2316370
   8.5124250  36.0132630  35.0191890   7.6988860  35.5145800  34.9437200
   8.3186200  36.8530880  34.6028240   8.4333110  44.6903730  46.7631500
   8.3670420  43.7699400  46.5089090   7.8038250  44.7879170  47.4776140
  11.2272640  40.3852280  33.3154050  12.1152260  40.6969510  33.1405390
  11.1977730  39.5124530  32.9234630   2.3363730  45.2909690  38.7214920
   2.8542400  44.4877950  38.6671810   1.8847750  45.2288830  39.5631750
   7.2233230  46.5575970  33.9942220   7.5648930  47.3018200  33.4985540
   6.3945940  46.8707090  34.3567050   3.0221390  42.7155300  48.5180170
   2.7221530  42.8612480  47.6207990   3.7932630  42.1560590  48.4253560
   8.3649840  47.5124300  46.5135300   8.3794380  46.5805260  46.2954210
   7.6574940  47.5984060  47.1525070  13.4986910  41.6964120  32.7833910
  13.4150630  42.1278340  31.9330350  14.2181100  42.1562470  33.2160730
  14.5761050  44.1531640  45.8603880  13.8509240  44.7460420  45.6633270
  15.1036510  44.1455180  45.0617250  10.1060640  45.8791810  39.3587730
  10.4584460  45.2819940  38.6989100   9.2222970  45.5536040  39.5295980
   6.1923920  46.6389500  36.7658140   6.8795050  47.1858710  37.1465730
   5.4056340  47.1830230  36.8007750   5.4951130  43.6435530  36.3783500
   5.9513910  44.4540780  36.6043690   5.1439340  43.3258670  37.2101990
   7.7983740  49.1541870  43.6075800   8.4425960  49.3601250  44.2849220
   8.1613180  48.3930270  43.1546650   9.0715820  47.1574220  42.3253250
   9.7138050  46.4567380  42.4385420   9.5965170  47.9372660  42.1450140
  12.9171540  47.4422840  32.0492390  12.6909120  46.7253280  32.6417030
  12.5267740  47.1935280  31.2114140  10.8453440  47.9569120  45.5289310
  11.1809680  48.5435810  46.2067230   9.9253780  47.8261830  45.7587100
  12.4987790  45.3594780  33.7106550  12.2109490  45.8207470  34.4984430
  13.2939960  44.8992550  33.9790770   6.6742020  48.0060450  48.6977370
   6.3538890  47.2869690  49.2423060   6.0000380  48.6815520  48.7713430
   4.7156190  48.8520900  33.6410520   4.7066290  49.5850590  33.0255030
   3.7954550  48.6052480  33.7337480   9.8895620  38.2386610  44.0614170
  10.2576440  37.4181820  44.3893740   9.0293820  38.2988500  44.4769820
  13.2557650  37.1943550  34.8701730  12.6270810  37.2989220  34.1559960
  12.7609570  37.4140330  35.6595610   7.7015790  48.9149140  32.3035710
   7.8027770  48.7113130  31.3737690   6.8017530  48.6607420  32.5083490
   5.2241680  39.4729500  36.2859610   4.5157830  39.9415840  36.7273220
   5.5086160  38.8151510  36.9204800   6.8497610  40.8926200  44.2852140
   7.3482860  41.3672020  44.9503990   6.9920560  39.9689720  44.4922170
   9.2557110  36.1980160  37.7255400   9.1324890  36.2166290  36.7764910
  10.2041670  36.2459100  37.8453800   6.3433900  51.4335460  36.9983380
   6.5975400  51.3956850  36.0762750   5.3946380  51.3068790  36.9911630
   3.4276700  37.7814580  33.6610320   4.2767230  38.2184730  33.5950510
   3.0607970  38.0934840  34.4882380  14.0564470  37.1094160  45.1280530
  13.5538070  37.8499560  45.4674340  14.8721130  37.4978160  44.8117320
  12.3486480  42.3527340  38.5741890  11.4076620  42.3677570  38.7489580
  12.6630550  41.5663300  39.0202190   2.3268120  44.0346940  32.1345850
   3.0931390  43.9228300  32.6971280   2.4042810  43.3384910  31.4822620
  14.3512060  49.5236190  40.2496150  14.4759480  50.3467360  40.7219960
  15.2177620  49.3126920  39.9020300   1.8229590  51.6167400  39.9213280
   2.5592070  51.0682860  40.1921850   2.2070510  52.4823410  39.7819270
   4.9331900  50.7897710  31.7438850   5.7260510  51.0786540  31.2920640
   4.4136250  50.3589880  31.0651330   9.6652500  46.9093340  49.0574270
   9.0590660  46.9324940  48.3170020   9.3606610  46.1776380  49.5941520
  11.0952870  50.6373630  47.6683680  12.0474620  50.5531650  47.6183920
  10.9481090  51.3015340  48.3417470   5.4509300  46.0101120  31.6081200
   5.3459940  45.3953470  32.3342580   5.2833520  45.4867010  30.8244210
   5.6023620  44.6957920  47.5870430   4.8369290  45.2642920  47.5025100
   5.7839580  44.4034130  46.6938660   8.6912030  45.0721150  32.2123190
   8.1422130  45.5190450  32.8565930   9.3131290  44.5670400  32.7360860
  12.7446970  46.4263250  48.1445450  13.4856440  46.7639010  47.6412910
  11.9819650  46.5955310  47.5915220   4.3587150  44.0312070  34.1088490
   4.7803570  43.8651940  34.9519880   4.4837990  43.2212300  33.6143630
   2.5214570  40.0108620  46.9159470   1.9911030  39.5199570  46.2882810
   3.1902640  40.4392820  46.3817400   6.8714790  43.0549680  31.3565590
   7.3920450  42.3398700  30.9906740   7.5183190  43.6935550  31.6566100
  11.4192630  44.4778080  46.6800660  11.8333650  44.6323160  47.5291080
  10.4843630  44.6033300  46.8426440  11.8914800  41.8174240  48.6839810
  12.4735570  41.0626560  48.5960290  12.0676570  42.3481680  47.9071290
   3.0086870  36.9770990  46.9956760   2.9143740  36.3591740  46.2707630
   2.4284260  37.7037280  46.7686670   5.7748310  35.5344230  44.0284150
   5.3265610  35.5568490  43.1829700   5.1413510  35.1363250  44.6254450
   6.1807860  44.4298560  44.6496590   6.5995970  45.2731290  44.4772830
   5.2616490  44.5670600  44.4203370   8.5171760  42.1614740  46.0334430
   8.6367970  41.5655880  46.7729270   9.3765760  42.1984430  45.6135730
  10.8559660  42.7151930  44.6096940  10.3294880  43.2394550  44.0062080
  11.1991000  43.3479320  45.2406670   3.2546050  40.1045300  31.0546650
   3.0535110  39.2412660  31.4159990   3.0838100  40.0178660  30.1168250
   4.0315280  50.7351570  45.7654320   3.4936370  51.4597630  45.4463020
   4.2849240  50.2581910  44.9751660   5.2840530  38.7036090  47.2910250
   5.8740220  38.3951940  47.9788070   4.4660770  38.2315840  47.4470150
  10.1033960  38.3201900  47.5243270   9.4149480  37.6583440  47.4593260
  10.8239980  37.8740170  47.9691730  10.7334360  34.9153530  33.5833530
  11.0136650  34.0721430  33.9392950   9.9600090  35.1476640  34.0972280
   2.0528850  37.2045920  31.0424530   2.3554750  37.2113350  30.1343680
   2.7923440  36.8543780  31.5392190   6.8877490  51.9702780  46.0240970
   6.8136190  52.8737920  46.3313340   5.9856330  51.6514680  45.9963040
   5.2713780  36.1480540  32.0280730   4.9235780  35.4704530  31.4483180
   5.4726550  35.6870050  32.8424120   7.4362820  51.1361290  33.6467330
   8.3313610  51.4746260  33.6686090   7.4680450  50.4140700  33.0191610
   2.8866700  47.6286380  36.9876560   2.5862240  47.5051350  37.8880470
   2.7804190  46.7694970  36.5792290  14.4157170  49.6664960  46.3533530
  13.8159160  49.7257520  45.6097450  14.5451070  48.7269940  46.4830380
  13.1008810  46.3916940  44.4509690  12.2868650  46.8214100  44.7135480
  13.5083010  47.0035350  43.8378740  15.1634250  44.4464630  31.3509960
  15.4383090  45.3543510  31.2229180  14.9744990  44.3827160  32.2871950
  11.5609860  37.4709480  32.6463590  11.9794740  37.2840460  31.8060250
  11.2545920  36.6188530  32.9566520  14.4499210  41.5305140  45.9778910
  14.2185300  41.3017890  45.0776860  14.7103760  42.4504690  45.9323800
  12.8887280  36.7561570  48.7558610  13.7657460  36.7644970  49.1392610
  12.9008120  36.0192410  48.1450960  14.3350550  40.6091110  39.6446630
  14.8588030  40.1153760  39.0136800  14.9209970  40.7441470  40.3894200
  14.5140270  40.6930980  43.1666180  13.5642980  40.6594520  43.2811170
  14.6953280  41.6031090  42.9315950  13.8250520  39.8664460  35.5839040
  14.3209640  39.6335330  36.3687920  13.6266590  39.0276300  35.1676680
  15.2537680  38.5025410  38.1176720  15.1436960  38.3481450  39.0558990
  16.0145270  37.9746350  37.8752130  13.6003400  34.4419540  44.5759720
  14.2375620  35.0553680  44.9418910  13.7478290  34.4780200  43.6308950
  16.1427950  36.3333330  31.3582860  17.0677260  36.2014510  31.1501150
  16.1203740  36.4126150  32.3119310  16.2166440  37.1043990  33.9839570
  15.4217940  37.0389110  34.5132480  16.4209720  38.0394630  33.9724920
  13.1584860  51.1435540  37.9777960  13.7543930  50.8220110  37.3012380
  13.4163010  50.6707360  38.7691230   4.7653460  49.1313040  43.7278310
   4.5244820  49.3987600  42.8408830   5.7056100  49.3018770  43.7829170
   6.9707880  35.5945730  47.4834820   6.9096770  36.1867560  48.2330230
   7.9108260  35.4871690  47.3385080   9.6082440  35.2515790  47.1227110
  10.2222850  35.5695080  46.4608190  10.1532000  34.7664380  47.7422970
  16.0257620  51.1507420  44.5288950  15.5315900  51.5476290  43.8116080
  15.4170910  50.5256630  44.9226230  10.3490480  33.8147930  43.4496400
   9.4750320  34.1483040  43.2469330  10.2401230  33.3421110  44.2748270
  11.2562460  36.0218800  44.8338120  10.9275820  35.2070560  44.4539850
  12.2044760  35.9788610  44.7103810  13.7097070  51.7930840  41.8075690
  13.2500040  52.5446650  41.4333710  13.0809530  51.0737310  41.7490490
   4.1392790  50.1019080  40.9823820   4.6557810  49.4906440  40.4572080
   4.7890170  50.6047860  41.4734830   6.8788290  50.9927570  41.8092800
   7.1666100  50.7381870  40.9325810   7.3911510  50.4404930  42.3998370
   8.0965300  34.7317770  42.3889310   7.3137090  35.2063270  42.6686070
   7.8028230  33.8272600  42.2802490  12.6486370  35.4340870  40.4338400
  13.0894460  35.3785970  39.5860000  12.3793960  36.3498880  40.5048580
  14.5124940  35.0656110  38.4447220  14.4513340  34.1217330  38.2978240
  15.2916970  35.1736200  38.9900680   5.9819520  37.1504520  37.9005340
   5.1694030  36.7761410  37.5601220   6.4861160  36.3949600  38.2026530
  10.4844500  33.8146970  39.1388410  11.0873870  34.3867180  39.6136930
   9.7437490  34.3786410  38.9162310  13.6279100  34.2168530  34.4128690
  13.8229730  35.1151980  34.6796120  12.8408970  33.9855610  34.9061640
   1.8130860  35.5629300  33.4505000   2.3423620  34.7759100  33.3212950
   2.4459180  36.2420490  33.6840530   4.0068700  35.3004440  36.5050390
   3.3771440  34.5991750  36.6720520   3.4673840  36.0608570  36.2883550
   6.9460650  51.9143670  49.1761000   7.8727960  51.6787940  49.2196960
   6.9311080  52.7415670  48.6947030   4.1324260  34.5788420  48.9402880
   3.8508530  35.0822020  48.1763700   4.5143960  33.7810170  48.5745010
   3.0233360  51.8464080  33.7270560   3.7552180  51.5623360  33.1794450
   3.2827030  51.6077360  34.6169940   2.1848150  47.9628810  33.7316890
   1.5557030  48.4313910  34.2802720   2.2995980  47.1178030  34.1663080
  10.7339720  33.9942000  49.5183350  10.6205170  34.3136610  50.4134870
  11.5509460  34.3954510  49.2220630  13.5138210  51.1413530  49.0002040
  14.3063530  50.6462760  48.7928000  13.8071360  51.8203670  49.6077650
   9.6397870  42.0134470  19.8818090   9.5591920  41.0989080  19.6109800
   9.2262290  42.5101540  19.1757800   7.7715910  43.7913490  21.7627360
   6.9958010  43.3113930  22.0525930   8.4228840  43.1119140  21.5883520
  11.7923340  48.1973680  20.5426490  11.3304870  47.4260920  20.8713660
  12.6048890  48.2239750  21.0478940   1.7683000  48.1373390  22.8361140
   2.0711040  47.2471130  22.6571360   2.5126590  48.6943610  22.6083390
   8.0186650  50.4831690  20.1630480   7.3998090  50.9389190  19.5924920
   8.8738430  50.6383150  19.7620180   7.2124900  46.4670680  21.7697520
   7.1433180  45.5260620  21.6086650   7.9744760  46.5572090  22.3420090
   8.2430070  39.2741060  21.9966450   8.6194890  38.4012940  21.8840120
   8.1449580  39.6099760  21.1056890   2.3735080  37.6466690  17.4583890
   2.4801830  38.5470420  17.7652650   1.4627440  37.5984660  17.1678540
  12.0254190  36.7691500  18.9294790  12.8463810  36.2788070  18.9720270
  12.0588270  37.3589160  19.6826630   4.2142810  40.6153060  21.7909070
   4.7221030  41.1134030  22.4314090   4.7456050  39.8388260  21.6148430
  16.3153740  38.7858250  25.4938420  15.6105910  39.1739960  24.9753530
  16.5811660  39.4808540  26.0959350   2.4978910  35.2551620  26.0572490
   2.4997350  35.7724010  25.2518390   1.6683220  34.7781800  26.0342420
   8.8850000  45.3670930  17.5562390   8.2667270  45.8320380  16.9925110
   9.3973250  46.0598410  17.9731900   3.7481760  44.8946800  24.2345990
   3.4151140  45.5215720  24.8767060   3.9248440  45.4208680  23.4547660
  12.2615670  38.7091880  21.7022330  11.5571240  38.9976770  22.2825440
  12.6227830  39.5191990  21.3421890   2.9600860  46.8627600  26.0495170
   3.5774860  47.5378680  25.7679620   2.0993980  47.2715580  25.9582670
  13.8778450  48.3267010  23.9649810  13.1941970  48.9966120  23.9566480
  14.4172740  48.5247660  23.1994670  15.3302590  38.1546670  22.0931540
  14.3827500  38.1885650  22.2246970  15.6552580  38.9685620  22.4780900
   5.8622130  34.4543850  20.3887530   6.1697110  33.8990740  19.6723030
   4.9322830  34.5888310  20.2060520  11.4137190  50.1711140  22.6794990
  11.4264350  49.7673430  21.8117250  10.8612410  50.9458430  22.5756420
  12.7082610  46.8927360  17.7685160  12.5978940  45.9501690  17.8934580
  12.7050860  47.2543000  18.6547920  10.8122630  45.0740980  24.0077600
  11.2291420  44.8601090  23.1731060  11.5362450  45.3313770  24.5786220
   8.2502890  42.5192680  17.1247650   7.3232170  42.4530060  17.3536120
   8.4027710  43.4572810  17.0102890   8.2371970  38.7909680  14.1214810
   7.2975640  38.9523640  14.2067270   8.5555230  39.5095360  13.5750800
  14.7584730  43.4728200  24.0993840  13.9303360  43.5421290  23.6243970
  15.3535210  44.0582510  23.6309670  12.2800180  44.0812980  17.6282900
  11.6612600  43.7432530  16.9809200  12.2624630  43.4372740  18.3362090
  11.7226740  40.2597520  25.0448710  11.3097920  41.0851230  25.2988700
  10.9902690  39.6742560  24.8525070   3.8559530  43.0457420  19.9067380
   3.4516530  42.3334670  19.4113280   3.9422650  42.7010660  20.7955420
   4.3241230  46.7324980  22.0706590   4.0269520  46.1270450  21.3914370
   5.2741050  46.7702290  21.9595950   2.5688150  39.8200630  23.6866420
   3.1202740  39.9295970  22.9119670   3.0831660  40.1938230  24.4021650
  12.4126840  50.3056850  25.7329690  11.9357400  51.1129040  25.5402300
  11.7288630  49.6535180  25.8855900   3.4159660  46.4706670  28.7214390
   2.5188190  46.6946640  28.9687790   3.4412530  46.5941610  27.7725790
  10.4564880  43.3199790  14.6355650  10.8958160  42.4822220  14.4893470
  11.1693300  43.9529190  14.7219790   8.5660260  48.2595860  18.6036890
   9.0056170  49.0020190  18.1892280   8.5047150  48.5022430  19.5275850
   4.0411230  49.2841690  29.5056910   4.0126660  49.6884640  28.6385340
   3.8776200  48.3552050  29.3428510  14.0382020  34.5742600  12.9496690
  13.7254680  34.6669430  13.8495760  14.7994490  35.1523630  12.8994120
   9.2576040  50.9609640  26.5315900   9.7720710  50.8717650  27.3338330
   8.4145120  51.3069340  26.8243810  11.2330440  51.2464980  15.9599900
  11.0731580  50.9567920  16.8581730  11.0677150  50.4705110  15.4245130
   3.7118820  51.0263510  17.7371520   3.5361300  50.1099050  17.5239320
   2.8574560  51.3850800  17.9769320  10.9356570  48.7552540  14.5197900
  10.2421730  48.7529830  13.8600180  11.6779430  48.3311860  14.0892070
  10.5006500  50.3815250  18.5946390  10.9563450  49.6004630  18.9085010
  10.8399020  51.0922070  19.1387570  15.2483310  39.3114100  28.9270830
  14.6327580  39.8193770  28.3986290  14.9279730  38.4112430  28.8696770
   3.0227820  35.2837470  20.7897700   2.5795970  36.0647010  20.4582220
   3.5812810  35.6067360  21.4968640   7.3097630  38.1505990  26.3933020
   6.8477000  38.3589010  27.2052960   6.9075740  37.3365340  26.0903690
  12.3102140  39.3714940  27.5229680  11.4595730  39.0720690  27.8438750
  12.1503930  39.6156950  26.6113500   9.4051850  40.8716690  29.6228470
   9.7305260  40.0380440  29.2830700  10.1932180  41.3945210  29.7706800
   6.1386640  34.9048170  15.6703530   5.5140820  34.9008040  16.3956840
   6.0516760  34.0379130  15.2739500   5.0603720  35.8284800  22.6487300
   5.3576050  36.7347630  22.5679320   5.6089280  35.3403580  22.0346870
   2.8142040  40.4071040  18.5178950   2.5882960  40.1908210  19.4225570
   2.0334570  40.8399500  18.1724920  10.0439800  40.4134410  17.1169600
   9.4448690  41.1370210  16.9333220  10.5919410  40.3511190  16.3346050
   5.2541250  41.3056620  29.1839220   5.1584850  40.3651350  29.0339620
   6.0973230  41.5271690  28.7887290   8.6504670  39.0497950  19.1472880
   9.0434240  39.3670150  18.3341570   9.0121520  38.1709830  19.2617400
   6.9596840  37.8005260  30.4069740   6.2695160  37.6077460  31.0415830
   7.7029140  38.0839900  30.9394040   9.2359810  41.6403700  23.2423660
   8.5040930  42.1490510  23.5913760   8.8384150  40.8233680  22.9412440
   5.6737200  38.3157900  21.6476150   5.6773260  37.8747850  20.7980690
   6.5688320  38.6375230  21.7547970   5.7357350  39.3169980  14.6382910
   5.8570170  39.2756460  15.5868730   5.3505860  40.1794130  14.4829640
   9.6985720  37.0937380  22.6546600   9.7158460  37.5446030  23.4988450
   9.4501300  36.1943020  22.8680040   4.7478850  41.6271120  14.0366210
   4.1795750  41.1789370  13.4102120   5.4567850  41.9863900  13.5031360
  13.1256470  34.5069560  28.4932980  13.4502240  33.7759220  29.0190960
  13.1612980  34.1883200  27.5913970   5.9745170  42.3759680  23.3941560
   6.3415300  41.9018250  24.1402900   5.7850230  43.2501250  23.7349900
   3.7644540  41.4168320  25.7125770   3.4601610  42.2960300  25.9376130
   4.7191000  41.4768110  25.7483210   2.2926330  45.6229310  16.3092620
   1.5188590  45.0826930  16.1491340   3.0220960  45.1035920  15.9710380
  13.0514310  44.6194670  22.1019010  13.7713430  45.1149960  21.7115120
  12.8496130  43.9412560  21.4572880   8.5124250  36.0132630  16.2448400
   7.6988860  35.5145800  16.1693710   8.3186200  36.8530880  15.8284750
   8.4333110  44.6903730  27.9888010   8.3670420  43.7699400  27.7345600
   7.8038250  44.7879170  28.7032650  11.2272640  40.3852280  14.5410560
  12.1152260  40.6969510  14.3661900  11.1977730  39.5124530  14.1491140
   2.3363730  45.2909690  19.9471430   2.8542400  44.4877950  19.8928320
   1.8847750  45.2288830  20.7888260   7.2233230  46.5575970  15.2198730
   7.5648930  47.3018200  14.7242050   6.3945940  46.8707090  15.5823560
   3.0221390  42.7155300  29.7436680   2.7221530  42.8612480  28.8464500
   3.7932630  42.1560590  29.6510070   8.3649840  47.5124300  27.7391810
   8.3794380  46.5805260  27.5210720   7.6574940  47.5984060  28.3781580
  13.4986910  41.6964120  14.0090420  13.4150630  42.1278340  13.1586860
  14.2181100  42.1562470  14.4417240  14.5761050  44.1531640  27.0860390
  13.8509240  44.7460420  26.8889780  15.1036510  44.1455180  26.2873760
  14.5274160  48.5506380  16.7372550  13.8850320  47.8962000  17.0116270
  14.1404820  48.9561470  15.9613220  10.1060640  45.8791810  20.5844240
  10.4584460  45.2819940  19.9245610   9.2222970  45.5536040  20.7552490
   6.1923920  46.6389500  17.9914650   6.8795050  47.1858710  18.3722240
   5.4056340  47.1830230  18.0264260   5.4951130  43.6435530  17.6040010
   5.9513910  44.4540780  17.8300200   5.1439340  43.3258670  18.4358500
   7.7983740  49.1541870  24.8332310   8.4425960  49.3601250  25.5105730
   8.1613180  48.3930270  24.3803160   9.0715820  47.1574220  23.5509760
   9.7138050  46.4567380  23.6641930   9.5965170  47.9372660  23.3706650
  12.9171540  47.4422840  13.2748900  12.6909120  46.7253280  13.8673540
  12.5267740  47.1935280  12.4370650  10.8453440  47.9569120  26.7545820
  11.1809680  48.5435810  27.4323740   9.9253780  47.8261830  26.9843610
  12.4987790  45.3594780  14.9363060  12.2109490  45.8207470  15.7240940
  13.2939960  44.8992550  15.2047280   6.6742020  48.0060450  29.9233880
   6.3538890  47.2869690  30.4679570   6.0000380  48.6815520  29.9969940
   4.7156190  48.8520900  14.8667030   4.7066290  49.5850590  14.2511540
   3.7954550  48.6052480  14.9593990   9.8895620  38.2386610  25.2870680
  10.2576440  37.4181820  25.6150250   9.0293820  38.2988500  25.7026330
  13.2557650  37.1943550  16.0958240  12.6270810  37.2989220  15.3816470
  12.7609570  37.4140330  16.8852120   7.7015790  48.9149140  13.5292220
   7.8027770  48.7113130  12.5994200   6.8017530  48.6607420  13.7340000
   5.2241680  39.4729500  17.5116120   4.5157830  39.9415840  17.9529730
   5.5086160  38.8151510  18.1461310   6.8497610  40.8926200  25.5108650
   7.3482860  41.3672020  26.1760500   6.9920560  39.9689720  25.7178680
   9.2557110  36.1980160  18.9511910   9.1324890  36.2166290  18.0021420
  10.2041670  36.2459100  19.0710310   6.3433900  51.4335460  18.2239890
   6.5975400  51.3956850  17.3019260   5.3946380  51.3068790  18.2168140
   3.4276700  37.7814580  14.8866830   4.2767230  38.2184730  14.8207020
   3.0607970  38.0934840  15.7138890  14.0564470  37.1094160  26.3537040
  13.5538070  37.8499560  26.6930850  14.8721130  37.4978160  26.0373830
  12.3486480  42.3527340  19.7998400  11.4076620  42.3677570  19.9746090
  12.6630550  41.5663300  20.2458700   2.3268120  44.0346940  13.3602360
   3.0931390  43.9228300  13.9227790   2.4042810  43.3384910  12.7079130
  14.3512060  49.5236190  21.4752660  14.4759480  50.3467360  21.9476470
  15.2177620  49.3126920  21.1276810   1.8229590  51.6167400  21.1469790
   2.5592070  51.0682860  21.4178360   2.2070510  52.4823410  21.0075780
   4.9331900  50.7897710  12.9695360   5.7260510  51.0786540  12.5177150
   4.4136250  50.3589880  12.2907840   9.6652500  46.9093340  30.2830780
   9.0590660  46.9324940  29.5426530   9.3606610  46.1776380  30.8198030
  11.0952870  50.6373630  28.8940190  12.0474620  50.5531650  28.8440430
  10.9481090  51.3015340  29.5673980  13.9862070  50.0167840  14.3932100
  13.7003580  49.6032980  13.5786280  13.7881620  50.9455550  14.2732620
   5.4509300  46.0101120  12.8337710   5.3459940  45.3953470  13.5599090
   5.2833520  45.4867010  12.0500720   5.6023620  44.6957920  28.8126940
   4.8369290  45.2642920  28.7281610   5.7839580  44.4034130  27.9195170
   8.6912030  45.0721150  13.4379700   8.1422130  45.5190450  14.0822440
   9.3131290  44.5670400  13.9617370  12.7446970  46.4263250  29.3701960
  13.4856440  46.7639010  28.8669420  11.9819650  46.5955310  28.8171730
   4.3587150  44.0312070  15.3345000   4.7803570  43.8651940  16.1776390
   4.4837990  43.2212300  14.8400140   2.5214570  40.0108620  28.1415980
   1.9911030  39.5199570  27.5139320   3.1902640  40.4392820  27.6073910
   6.8714790  43.0549680  12.5822100   7.3920450  42.3398700  12.2163250
   7.5183190  43.6935550  12.8822610  11.4192630  44.4778080  27.9057170
  11.8333650  44.6323160  28.7547590  10.4843630  44.6033300  28.0682950
  11.8914800  41.8174240  29.9096320  12.4735570  41.0626560  29.8216800
  12.0676570  42.3481680  29.1327800   3.0086870  36.9770990  28.2213270
   2.9143740  36.3591740  27.4964140   2.4284260  37.7037280  27.9943180
   5.7748310  35.5344230  25.2540660   5.3265610  35.5568490  24.4086210
   5.1413510  35.1363250  25.8510960   6.1807860  44.4298560  25.8753100
   6.5995970  45.2731290  25.7029340   5.2616490  44.5670600  25.6459880
   8.5171760  42.1614740  27.2590940   8.6367970  41.5655880  27.9985780
   9.3765760  42.1984430  26.8392240  10.8559660  42.7151930  25.8353450
  10.3294880  43.2394550  25.2318590  11.1991000  43.3479320  26.4663180
   3.2546050  40.1045300  12.2803160   3.0535110  39.2412660  12.6416500
   3.0838100  40.0178660  11.3424760   4.0315280  50.7351570  26.9910830
   3.4936370  51.4597630  26.6719530   4.2849240  50.2581910  26.2008170
   5.2840530  38.7036090  28.5166760   5.8740220  38.3951940  29.2044580
   4.4660770  38.2315840  28.6726660  10.1033960  38.3201900  28.7499780
   9.4149480  37.6583440  28.6849770  10.8239980  37.8740170  29.1948240
  10.7334360  34.9153530  14.8090040  11.0136650  34.0721430  15.1649460
   9.9600090  35.1476640  15.3228790   2.0528850  37.2045920  12.2681040
   2.3554750  37.2113350  11.3600190   2.7923440  36.8543780  12.7648700
   6.8877490  51.9702780  27.2497480   6.8136190  52.8737920  27.5569850
   5.9856330  51.6514680  27.2219550   5.2713780  36.1480540  13.2537240
   4.9235780  35.4704530  12.6739690   5.4726550  35.6870050  14.0680630
   7.4362820  51.1361290  14.8723840   8.3313610  51.4746260  14.8942600
   7.4680450  50.4140700  14.2448120   2.8866700  47.6286380  18.2133070
   2.5862240  47.5051350  19.1136980   2.7804190  46.7694970  17.8048800
  14.4157170  49.6664960  27.5790040  13.8159160  49.7257520  26.8353960
  14.5451070  48.7269940  27.7086890  15.6558620  47.4082780  12.9159750
  14.8251580  47.4759430  13.3866980  15.8330450  48.2986900  12.6126610
  15.1115080  44.1530260  15.4193950  15.8733990  44.7226910  15.5253640
  15.1269450  43.5857460  16.1902260  16.1175050  45.0080360  20.2635880
  16.4883880  44.2247680  19.8571850  16.7576980  45.6969460  20.0853180
  13.1008810  46.3916940  25.6766200  12.2868650  46.8214100  25.9391990
  13.5083010  47.0035350  25.0635250  15.1634250  44.4464630  12.5766470
  15.4383090  45.3543510  12.4485690  14.9744990  44.3827160  13.5128460
  11.5609860  37.4709480  13.8720100  11.9794740  37.2840460  13.0316760
  11.2545920  36.6188530  14.1823030  15.0599590  42.3833620  17.5695900
  14.6843190  41.6161550  17.1377190  14.3302710  42.7656320  18.0570830
  14.4499210  41.5305140  27.2035420  14.2185300  41.3017890  26.3033370
  14.7103760  42.4504690  27.1580310  12.8887280  36.7561570  29.9815120
  13.7657460  36.7644970  30.3649120  12.9008120  36.0192410  29.3707470
  14.3350550  40.6091110  20.8703140  14.8588030  40.1153760  20.2393310
  14.9209970  40.7441470  21.6150710  14.5140270  40.6930980  24.3922690
  13.5642980  40.6594520  24.5067680  14.6953280  41.6031090  24.1572460
  13.8250520  39.8664460  16.8095550  14.3209640  39.6335330  17.5944430
  13.6266590  39.0276300  16.3933190  15.2537680  38.5025410  19.3433230
  15.1436960  38.3481450  20.2815500  16.0145270  37.9746350  19.1008640
  13.6003400  34.4419540  25.8016230  14.2375620  35.0553680  26.1675420
  13.7478290  34.4780200  24.8565460  16.1427950  36.3333330  12.5839370
  17.0677260  36.2014510  12.3757660  16.1203740  36.4126150  13.5375820
  16.2166440  37.1043990  15.2096080  15.4217940  37.0389110  15.7388990
  16.4209720  38.0394630  15.1981430  13.1584860  51.1435540  19.2034470
  13.7543930  50.8220110  18.5268890  13.4163010  50.6707360  19.9947740
   4.7653460  49.1313040  24.9534820   4.5244820  49.3987600  24.0665340
   5.7056100  49.3018770  25.0085680   6.9707880  35.5945730  28.7091330
   6.9096770  36.1867560  29.4586740   7.9108260  35.4871690  28.5641590
   9.6082440  35.2515790  28.3483620  10.2222850  35.5695080  27.6864700
  10.1532000  34.7664380  28.9679480  10.3490480  33.8147930  24.6752910
   9.4750320  34.1483040  24.4725840  10.2401230  33.3421110  25.5004780
  11.2562460  36.0218800  26.0594630  10.9275820  35.2070560  25.6796360
  12.2044760  35.9788610  25.9360320  13.7097070  51.7930840  23.0332200
  13.2500040  52.5446650  22.6590220  13.0809530  51.0737310  22.9747000
   4.1392790  50.1019080  22.2080330   4.6557810  49.4906440  21.6828590
   4.7890170  50.6047860  22.6991340   6.8788290  50.9927570  23.0349310
   7.1666100  50.7381870  22.1582320   7.3911510  50.4404930  23.6254880
   8.0965300  34.7317770  23.6145820   7.3137090  35.2063270  23.8942580
   7.8028230  33.8272600  23.5059000  12.6486370  35.4340870  21.6594910
  13.0894460  35.3785970  20.8116510  12.3793960  36.3498880  21.7305090
  14.5124940  35.0656110  19.6703730  14.4513340  34.1217330  19.5234750
  15.2916970  35.1736200  20.2157190   5.9819520  37.1504520  19.1261850
   5.1694030  36.7761410  18.7857730   6.4861160  36.3949600  19.4283040
  10.4844500  33.8146970  20.3644920  11.0873870  34.3867180  20.8393440
   9.7437490  34.3786410  20.1418820  13.6279100  34.2168530  15.6385200
  13.8229730  35.1151980  15.9052630  12.8408970  33.9855610  16.1318150
   1.8130860  35.5629300  14.6761510   2.3423620  34.7759100  14.5469460
   2.4459180  36.2420490  14.9097040   4.0068700  35.3004440  17.7306900
   3.3771440  34.5991750  17.8977030   3.4673840  36.0608570  17.5140060
   6.9460650  51.9143670  30.4017510   7.8727960  51.6787940  30.4453470
   6.9311080  52.7415670  29.9203540  15.1805710  51.4569240  17.3991760
  15.3557900  50.7706980  16.7552680  14.4827280  51.9816290  17.0068430
   4.1324260  34.5788420  30.1659390   3.8508530  35.0822020  29.4020210
   4.5143960  33.7810170  29.8001520   3.0233360  51.8464080  14.9527070
   3.7552180  51.5623360  14.4050960   3.2827030  51.6077360  15.8426450
   2.1848150  47.9628810  14.9573400   1.5557030  48.4313910  15.5059230
   2.2995980  47.1178030  15.3919590  10.7339720  33.9942000  30.7439860
  10.6205170  34.3136610  31.6391380  11.5509460  34.3954510  30.4477140
  13.5138210  51.1413530  30.2258550  14.3063530  50.6462760  30.0184510
  13.8071360  51.8203670  30.8334160   7.7715910  43.7913490   2.9883870
   6.9958010  43.3113930   3.2782440   8.4228840  43.1119140   2.8140030
  11.7923340  48.1973680   1.7683000  11.3304870  47.4260920   2.0970170
  12.6048890  48.2239750   2.2735450   1.7683000  48.1373390   4.0617650
   2.0711040  47.2471130   3.8827870   2.5126590  48.6943610   3.8339900
   7.2124900  46.4670680   2.9954030   7.1433180  45.5260620   2.8343160
   7.9744760  46.5572090   3.5676600   8.2430070  39.2741060   3.2222960
   8.6194890  38.4012940   3.1096630   8.1449580  39.6099760   2.3313400
   4.2142810  40.6153060   3.0165580   4.7221030  41.1134030   3.6570600
   4.7456050  39.8388260   2.8404940  16.3153740  38.7858250   6.7194930
  15.6105910  39.1739960   6.2010040  16.5811660  39.4808540   7.3215860
   2.4978910  35.2551620   7.2829000   2.4997350  35.7724010   6.4774900
   1.6683220  34.7781800   7.2598930   3.7481760  44.8946800   5.4602500
   3.4151140  45.5215720   6.1023570   3.9248440  45.4208680   4.6804170
  12.2615670  38.7091880   2.9278840  11.5571240  38.9976770   3.5081950
  12.6227830  39.5191990   2.5678400   2.9600860  46.8627600   7.2751680
   3.5774860  47.5378680   6.9936130   2.0993980  47.2715580   7.1839180
  13.8778450  48.3267010   5.1906320  13.1941970  48.9966120   5.1822990
  14.4172740  48.5247660   4.4251180  15.3302590  38.1546670   3.3188050
  14.3827500  38.1885650   3.4503480  15.6552580  38.9685620   3.7037410
  11.4137190  50.1711140   3.9051500  11.4264350  49.7673430   3.0373760
  10.8612410  50.9458430   3.8012930  10.8122630  45.0740980   5.2334110
  11.2291420  44.8601090   4.3987570  11.5362450  45.3313770   5.8042730
  14.7584730  43.4728200   5.3250350  13.9303360  43.5421290   4.8500480
  15.3535210  44.0582510   4.8566180  11.7226740  40.2597520   6.2705220
  11.3097920  41.0851230   6.5245210  10.9902690  39.6742560   6.0781580
   4.3241230  46.7324980   3.2963100   4.0269520  46.1270450   2.6170880
   5.2741050  46.7702290   3.1852460   2.5688150  39.8200630   4.9122930
   3.1202740  39.9295970   4.1376180   3.0831660  40.1938230   5.6278160
  12.4126840  50.3056850   6.9586200  11.9357400  51.1129040   6.7658810
  11.7288630  49.6535180   7.1112410   3.4159660  46.4706670   9.9470900
   2.5188190  46.6946640  10.1944300   3.4412530  46.5941610   8.9982300
   4.0411230  49.2841690  10.7313420   4.0126660  49.6884640   9.8641850
   3.8776200  48.3552050  10.5685020  15.9926050  50.0668790  12.0277590
  16.4685770  50.5451680  12.7066670  16.6133210  49.9986280  11.3023090
  15.3959300  47.2581640   9.1877600  15.5222360  47.0193520   8.2694780
  15.4380680  46.4266180   9.6599680   9.2576040  50.9609640   7.7572410
   9.7720710  50.8717650   8.5594840   8.4145120  51.3069340   8.0500320
  15.2483310  39.3114100  10.1527340  14.6327580  39.8193770   9.6242800
  14.9279730  38.4112430  10.0953280   3.0227820  35.2837470   2.0154210
   2.5795970  36.0647010   1.6838730   3.5812810  35.6067360   2.7225150
   7.3097630  38.1505990   7.6189530   6.8477000  38.3589010   8.4309470
   6.9075740  37.3365340   7.3160200  12.3102140  39.3714940   8.7486190
  11.4595730  39.0720690   9.0695260  12.1503930  39.6156950   7.8370010
   9.4051850  40.8716690  10.8484980   9.7305260  40.0380440  10.5087210
  10.1932180  41.3945210  10.9963310   5.0603720  35.8284800   3.8743810
   5.3576050  36.7347630   3.7935830   5.6089280  35.3403580   3.2603380
   5.2541250  41.3056620  10.4095730   5.1584850  40.3651350  10.2596130
   6.0973230  41.5271690  10.0143800   6.9596840  37.8005260  11.6326250
   6.2695160  37.6077460  12.2672340   7.7029140  38.0839900  12.1650550
   9.2359810  41.6403700   4.4680170   8.5040930  42.1490510   4.8170270
   8.8384150  40.8233680   4.1668950   5.6737200  38.3157900   2.8732660
   5.6773260  37.8747850   2.0237200   6.5688320  38.6375230   2.9804480
   9.6985720  37.0937380   3.8803110   9.7158460  37.5446030   4.7244960
   9.4501300  36.1943020   4.0936550  13.1256470  34.5069560   9.7189490
  13.4502240  33.7759220  10.2447470  13.1612980  34.1883200   8.8170480
   5.9745170  42.3759680   4.6198070   6.3415300  41.9018250   5.3659410
   5.7850230  43.2501250   4.9606410   3.7644540  41.4168320   6.9382280
   3.4601610  42.2960300   7.1632640   4.7191000  41.4768110   6.9739720
  13.0514310  44.6194670   3.3275520  13.7713430  45.1149960   2.9371630
  12.8496130  43.9412560   2.6829390   8.4333110  44.6903730   9.2144520
   8.3670420  43.7699400   8.9602110   7.8038250  44.7879170   9.9289160
   3.0221390  42.7155300  10.9693190   2.7221530  42.8612480  10.0721010
   3.7932630  42.1560590  10.8766580   8.3649840  47.5124300   8.9648320
   8.3794380  46.5805260   8.7467230   7.6574940  47.5984060   9.6038090
  14.5761050  44.1531640   8.3116900  13.8509240  44.7460420   8.1146290
  15.1036510  44.1455180   7.5130270   7.7983740  49.1541870   6.0588820
   8.4425960  49.3601250   6.7362240   8.1613180  48.3930270   5.6059670
   9.0715820  47.1574220   4.7766270   9.7138050  46.4567380   4.8898440
   9.5965170  47.9372660   4.5963160  10.8453440  47.9569120   7.9802330
  11.1809680  48.5435810   8.6580250   9.9253780  47.8261830   8.2100120
   6.6742020  48.0060450  11.1490390   6.3538890  47.2869690  11.6936080
   6.0000380  48.6815520  11.2226450   9.8895620  38.2386610   6.5127190
  10.2576440  37.4181820   6.8406760   9.0293820  38.2988500   6.9282840
   6.8497610  40.8926200   6.7365160   7.3482860  41.3672020   7.4017010
   6.9920560  39.9689720   6.9435190  14.0564470  37.1094160   7.5793550
  13.5538070  37.8499560   7.9187360  14.8721130  37.4978160   7.2630340
  14.3512060  49.5236190   2.7009170  14.4759480  50.3467360   3.1732980
  15.2177620  49.3126920   2.3533320   1.8229590  51.6167400   2.3726300
   2.5592070  51.0682860   2.6434870   2.2070510  52.4823410   2.2332290
   9.6652500  46.9093340  11.5087290   9.0590660  46.9324940  10.7683040
   9.3606610  46.1776380  12.0454540  11.0952870  50.6373630  10.1196700
  12.0474620  50.5531650  10.0696940  10.9481090  51.3015340  10.7930490
   5.6023620  44.6957920  10.0383450   4.8369290  45.2642920   9.9538120
   5.7839580  44.4034130   9.1451680  12.7446970  46.4263250  10.5958470
  13.4856440  46.7639010  10.0925930  11.9819650  46.5955310  10.0428240
   2.5214570  40.0108620   9.3672490   1.9911030  39.5199570   8.7395830
   3.1902640  40.4392820   8.8330420  11.4192630  44.4778080   9.1313680
  11.8333650  44.6323160   9.9804100  10.4843630  44.6033300   9.2939460
  11.8914800  41.8174240  11.1352830  12.4735570  41.0626560  11.0473310
  12.0676570  42.3481680  10.3584310   3.0086870  36.9770990   9.4469780
   2.9143740  36.3591740   8.7220650   2.4284260  37.7037280   9.2199690
   5.7748310  35.5344230   6.4797170   5.3265610  35.5568490   5.6342720
   5.1413510  35.1363250   7.0767470   6.1807860  44.4298560   7.1009610
   6.5995970  45.2731290   6.9285850   5.2616490  44.5670600   6.8716390
   8.5171760  42.1614740   8.4847450   8.6367970  41.5655880   9.2242290
   9.3765760  42.1984430   8.0648750  10.8559660  42.7151930   7.0609960
  10.3294880  43.2394550   6.4575100  11.1991000  43.3479320   7.6919690
   4.0315280  50.7351570   8.2167340   3.4936370  51.4597630   7.8976040
   4.2849240  50.2581910   7.4264680   5.2840530  38.7036090   9.7423270
   5.8740220  38.3951940  10.4301090   4.4660770  38.2315840   9.8983170
  10.1033960  38.3201900   9.9756290   9.4149480  37.6583440   9.9106280
  10.8239980  37.8740170  10.4204750   6.8877490  51.9702780   8.4753990
   6.8136190  52.8737920   8.7826360   5.9856330  51.6514680   8.4476060
  14.4157170  49.6664960   8.8046550  13.8159160  49.7257520   8.0610470
  14.5451070  48.7269940   8.9343400  13.1008810  46.3916940   6.9022710
  12.2868650  46.8214100   7.1648500  13.5083010  47.0035350   6.2891760
  14.4499210  41.5305140   8.4291930  14.2185300  41.3017890   7.5289880
  14.7103760  42.4504690   8.3836820  12.8887280  36.7561570  11.2071630
  13.7657460  36.7644970  11.5905630  12.9008120  36.0192410  10.5963980
  14.5140270  40.6930980   5.6179200  13.5642980  40.6594520   5.7324190
  14.6953280  41.6031090   5.3828970  13.6003400  34.4419540   7.0272740
  14.2375620  35.0553680   7.3931930  13.7478290  34.4780200   6.0821970
   4.7653460  49.1313040   6.1791330   4.5244820  49.3987600   5.2921850
   5.7056100  49.3018770   6.2342190   6.9707880  35.5945730   9.9347840
   6.9096770  36.1867560  10.6843250   7.9108260  35.4871690   9.7898100
   9.6082440  35.2515790   9.5740130  10.2222850  35.5695080   8.9121210
  10.1532000  34.7664380  10.1935990  16.0257620  51.1507420   6.9801970
  15.5315900  51.5476290   6.2629100  15.4170910  50.5256630   7.3739250
  10.3490480  33.8147930   5.9009420   9.4750320  34.1483040   5.6982350
  10.2401230  33.3421110   6.7261290  11.2562460  36.0218800   7.2851140
  10.9275820  35.2070560   6.9052870  12.2044760  35.9788610   7.1616830
  13.7097070  51.7930840   4.2588710  13.2500040  52.5446650   3.8846730
  13.0809530  51.0737310   4.2003510   4.1392790  50.1019080   3.4336840
   4.6557810  49.4906440   2.9085100   4.7890170  50.6047860   3.9247850
   6.8788290  50.9927570   4.2605820   7.1666100  50.7381870   3.3838830
   7.3911510  50.4404930   4.8511390   8.0965300  34.7317770   4.8402330
   7.3137090  35.2063270   5.1199090   7.8028230  33.8272600   4.7315510
  12.6486370  35.4340870   2.8851420  13.0894460  35.3785970   2.0373020
  12.3793960  36.3498880   2.9561600   6.9460650  51.9143670  11.6274020
   7.8727960  51.6787940  11.6709980   6.9311080  52.7415670  11.1460050
   4.1324260  34.5788420  11.3915900   3.8508530  35.0822020  10.6276720
   4.5143960  33.7810170  11.0258030  10.7339720  33.9942000  11.9696370
  10.6205170  34.3136610  12.8647890  11.5509460  34.3954510  11.6733650
  13.5138210  51.1413530  11.4515060  14.3063530  50.6462760  11.2441020
  13.8071360  51.8203670  12.0590670   9.6397870  23.2390980  76.2048560
   9.5591920  22.3245590  75.9340270   9.2262290  23.7358050  75.4988270
   7.7715910  25.0170000  78.0857830   6.9958010  24.5370440  78.3756400
   8.4228840  24.3375650  77.9113990  11.7923340  29.4230190  76.8656960
  11.3304870  28.6517430  77.1944130  12.6048890  29.4496260  77.3709410
   8.0186650  31.7088200  76.4860950   7.3998090  32.1645700  75.9155390
   8.8738430  31.8639660  76.0850650   7.2124900  27.6927190  78.0927990
   7.1433180  26.7517130  77.9317120   7.9744760  27.7828600  78.6650560
   8.2430070  20.4997570  78.3196920   8.6194890  19.6269450  78.2070590
   8.1449580  20.8356270  77.4287360   2.3735080  18.8723200  73.7814360
   2.4801830  19.7726930  74.0883120   1.4627440  18.8241170  73.4909010
  12.0254190  17.9948010  75.2525260  12.8463810  17.5044580  75.2950740
  12.0588270  18.5845670  76.0057100   4.2142810  21.8409570  78.1139540
   4.7221030  22.3390540  78.7544560   4.7456050  21.0644770  77.9378900
   8.8850000  26.5927440  73.8792860   8.2667270  27.0576890  73.3155580
   9.3973250  27.2854920  74.2962370  12.2615670  19.9348390  78.0252800
  11.5571240  20.2233280  78.6055910  12.6227830  20.7448500  77.6652360
  15.3302590  19.3803180  78.4162010  14.3827500  19.4142160  78.5477440
  15.6552580  20.1942130  78.8011370   5.8622130  15.6800360  76.7118000
   6.1697110  15.1247250  75.9953500   4.9322830  15.8144820  76.5290990
  12.7082610  28.1183870  74.0915630  12.5978940  27.1758200  74.2165050
  12.7050860  28.4799510  74.9778390   8.2502890  23.7449190  73.4478120
   7.3232170  23.6786570  73.6766590   8.4027710  24.6829320  73.3333360
   8.2371970  20.0166190  70.4445280   7.2975640  20.1780150  70.5297740
   8.5555230  20.7351870  69.8981270  12.2800180  25.3069490  73.9513370
  11.6612600  24.9689040  73.3039670  12.2624630  24.6629250  74.6592560
   3.8559530  24.2713930  76.2297850   3.4516530  23.5591180  75.7343750
   3.9422650  23.9267170  77.1185890   4.3241230  27.9581490  78.3937060
   4.0269520  27.3526960  77.7144840   5.2741050  27.9958800  78.2826420
  10.4564880  24.5456300  70.9586120  10.8958160  23.7078730  70.8123940
  11.1693300  25.1785700  71.0450260   8.5660260  29.4852370  74.9267360
   9.0056170  30.2276700  74.5122750   8.5047150  29.7278940  75.8506320
  14.0382020  15.7999110  69.2727160  13.7254680  15.8925940  70.1726230
  14.7994490  16.3780140  69.2224590  11.2330440  32.4721490  72.2830370
  11.0731580  32.1824430  73.1812200  11.0677150  31.6961620  71.7475600
   3.7118820  32.2520020  74.0601990   3.5361300  31.3355560  73.8469790
   2.8574560  32.6107310  74.2999790  10.9356570  29.9809050  70.8428370
  10.2421730  29.9786340  70.1830650  11.6779430  29.5568370  70.4122540
  10.5006500  31.6071760  74.9176860  10.9563450  30.8261140  75.2315480
  10.8399020  32.3178580  75.4618040   3.0227820  16.5093980  77.1128170
   2.5795970  17.2903520  76.7812690   3.5812810  16.8323870  77.8199110
   6.1386640  16.1304680  71.9934000   5.5140820  16.1264550  72.7187310
   6.0516760  15.2635640  71.5969970   2.8142040  21.6327550  74.8409420
   2.5882960  21.4164720  75.7456040   2.0334570  22.0656010  74.4955390
  10.0439800  21.6390920  73.4400070   9.4448690  22.3626720  73.2563690
  10.5919410  21.5767700  72.6576520   8.6504670  20.2754460  75.4703350
   9.0434240  20.5926660  74.6572040   9.0121520  19.3966340  75.5847870
   5.6737200  19.5414410  77.9706620   5.6773260  19.1004360  77.1211160
   6.5688320  19.8631740  78.0778440   5.7357350  20.5426490  70.9613380
   5.8570170  20.5012970  71.9099200   5.3505860  21.4050640  70.8060110
   4.7478850  22.8527630  70.3596680   4.1795750  22.4045880  69.7332590
   5.4567850  23.2120410  69.8261830   2.2926330  26.8485820  72.6323090
   1.5188590  26.3083440  72.4721810   3.0220960  26.3292430  72.2940850
  13.0514310  25.8451180  78.4249480  13.7713430  26.3406470  78.0345590
  12.8496130  25.1669070  77.7803350   8.5124250  17.2389140  72.5678870
   7.6988860  16.7402310  72.4924180   8.3186200  18.0787390  72.1515220
  11.2272640  21.6108790  70.8641030  12.1152260  21.9226020  70.6892370
  11.1977730  20.7381040  70.4721610   2.3363730  26.5166200  76.2701900
   2.8542400  25.7134460  76.2158790   1.8847750  26.4545340  77.1118730
   7.2233230  27.7832480  71.5429200   7.5648930  28.5274710  71.0472520
   6.3945940  28.0963600  71.9054030  13.4986910  22.9220630  70.3320890
  13.4150630  23.3534850  69.4817330  14.2181100  23.3818980  70.7647710
  14.5274160  29.7762890  73.0603020  13.8850320  29.1218510  73.3346740
  14.1404820  30.1817980  72.2843690  10.1060640  27.1048320  76.9074710
  10.4584460  26.5076450  76.2476080   9.2222970  26.7792550  77.0782960
   6.1923920  27.8646010  74.3145120   6.8795050  28.4115220  74.6952710
   5.4056340  28.4086740  74.3494730   5.4951130  24.8692040  73.9270480
   5.9513910  25.6797290  74.1530670   5.1439340  24.5515180  74.7588970
  12.9171540  28.6679350  69.5979370  12.6909120  27.9509790  70.1904010
  12.5267740  28.4191790  68.7601120  12.4987790  26.5851290  71.2593530
  12.2109490  27.0463980  72.0471410  13.2939960  26.1249060  71.5277750
   4.7156190  30.0777410  71.1897500   4.7066290  30.8107100  70.5742010
   3.7954550  29.8308990  71.2824460  13.2557650  18.4200060  72.4188710
  12.6270810  18.5245730  71.7046940  12.7609570  18.6396840  73.2082590
   7.7015790  30.1405650  69.8522690   7.8027770  29.9369640  68.9224670
   6.8017530  29.8863930  70.0570470   5.2241680  20.6986010  73.8346590
   4.5157830  21.1672350  74.2760200   5.5086160  20.0408020  74.4691780
   9.2557110  17.4236670  75.2742380   9.1324890  17.4422800  74.3251890
  10.2041670  17.4715610  75.3940780   6.3433900  32.6591970  74.5470360
   6.5975400  32.6213360  73.6249730   5.3946380  32.5325300  74.5398610
   3.4276700  19.0071090  71.2097300   4.2767230  19.4441240  71.1437490
   3.0607970  19.3191350  72.0369360  12.3486480  23.5783850  76.1228870
  11.4076620  23.5934080  76.2976560  12.6630550  22.7919810  76.5689170
   2.3268120  25.2603450  69.6832830   3.0931390  25.1484810  70.2458260
   2.4042810  24.5641420  69.0309600  14.3512060  30.7492700  77.7983130
  14.4759480  31.5723870  78.2706940  15.2177620  30.5383430  77.4507280
   1.8229590  32.8423910  77.4700260   2.5592070  32.2939370  77.7408830
   2.2070510  33.7079920  77.3306250   4.9331900  32.0154220  69.2925830
   5.7260510  32.3043050  68.8407620   4.4136250  31.5846390  68.6138310
  13.9862070  31.2424350  70.7162570  13.7003580  30.8289490  69.9016750
  13.7881620  32.1712060  70.5963090   5.4509300  27.2357630  69.1568180
   5.3459940  26.6209980  69.8829560   5.2833520  26.7123520  68.3731190
   8.6912030  26.2977660  69.7610170   8.1422130  26.7446960  70.4052910
   9.3131290  25.7926910  70.2847840   4.3587150  25.2568580  71.6575470
   4.7803570  25.0908450  72.5006860   4.4837990  24.4468810  71.1630610
   6.8714790  24.2806190  68.9052570   7.3920450  23.5655210  68.5393720
   7.5183190  24.9192060  69.2053080   3.2546050  21.3301810  68.6033630
   3.0535110  20.4669170  68.9646970   3.0838100  21.2435170  67.6655230
  10.7334360  16.1410040  71.1320510  11.0136650  15.2977940  71.4879930
   9.9600090  16.3733150  71.6459260   2.0528850  18.4302430  68.5911510
   2.3554750  18.4369860  67.6830660   2.7923440  18.0800290  69.0879170
   5.2713780  17.3737050  69.5767710   4.9235780  16.6961040  68.9970160
   5.4726550  16.9126560  70.3911100   7.4362820  32.3617800  71.1954310
   8.3313610  32.7002770  71.2173070   7.4680450  31.6397210  70.5678590
   2.8866700  28.8542890  74.5363540   2.5862240  28.7307860  75.4367450
   2.7804190  27.9951480  74.1279270  15.6558620  28.6339290  69.2390220
  14.8251580  28.7015940  69.7097450  15.8330450  29.5243410  68.9357080
  15.1115080  25.3786770  71.7424420  15.8733990  25.9483420  71.8484110
  15.1269450  24.8113970  72.5132730  16.1175050  26.2336870  76.5866350
  16.4883880  25.4504190  76.1802320  16.7576980  26.9225970  76.4083650
  15.1634250  25.6721140  68.8996940  15.4383090  26.5800020  68.7716160
  14.9744990  25.6083670  69.8358930  11.5609860  18.6965990  70.1950570
  11.9794740  18.5096970  69.3547230  11.2545920  17.8445040  70.5053500
  15.0599590  23.6090130  73.8926370  14.6843190  22.8418060  73.4607660
  14.3302710  23.9912830  74.3801300  14.3350550  21.8347620  77.1933610
  14.8588030  21.3410270  76.5623780  14.9209970  21.9697980  77.9381180
  13.8250520  21.0920970  73.1326020  14.3209640  20.8591840  73.9174900
  13.6266590  20.2532810  72.7163660  15.2537680  19.7281920  75.6663700
  15.1436960  19.5737960  76.6045970  16.0145270  19.2002860  75.4239110
  16.1427950  17.5589840  68.9069840  17.0677260  17.4271020  68.6988130
  16.1203740  17.6382660  69.8606290  16.2166440  18.3300500  71.5326550
  15.4217940  18.2645620  72.0619460  16.4209720  19.2651140  71.5211900
  13.1584860  32.3692050  75.5264940  13.7543930  32.0476620  74.8499360
  13.4163010  31.8963870  76.3178210  12.6486370  16.6597380  77.9825380
  13.0894460  16.6042480  77.1346980  12.3793960  17.5755390  78.0535560
  14.5124940  16.2912620  75.9934200  14.4513340  15.3473840  75.8465220
  15.2916970  16.3992710  76.5387660   5.9819520  18.3761030  75.4492320
   5.1694030  18.0017920  75.1088200   6.4861160  17.6206110  75.7513510
  10.4844500  15.0403480  76.6875390  11.0873870  15.6123690  77.1623910
   9.7437490  15.6042920  76.4649290  13.6279100  15.4425040  71.9615670
  13.8229730  16.3408490  72.2283100  12.8408970  15.2112120  72.4548620
   1.8130860  16.7885810  70.9991980   2.3423620  16.0015610  70.8699930
   2.4459180  17.4677000  71.2327510   4.0068700  16.5260950  74.0537370
   3.3771440  15.8248260  74.2207500   3.4673840  17.2865080  73.8370530
  15.1805710  32.6825750  73.7222230  15.3557900  31.9963490  73.0783150
  14.4827280  33.2072800  73.3298900   3.0233360  33.0720590  71.2757540
   3.7552180  32.7879870  70.7281430   3.2827030  32.8333870  72.1656920
   2.1848150  29.1885320  71.2803870   1.5557030  29.6570420  71.8289700
   2.2995980  28.3434540  71.7150060   9.6397870  23.2390980  57.4305070
   9.5591920  22.3245590  57.1596780   9.2262290  23.7358050  56.7244780
   7.7715910  25.0170000  59.3114340   6.9958010  24.5370440  59.6012910
   8.4228840  24.3375650  59.1370500  11.7923340  29.4230190  58.0913470
  11.3304870  28.6517430  58.4200640  12.6048890  29.4496260  58.5965920
   1.7683000  29.3629900  60.3848120   2.0711040  28.4727640  60.2058340
   2.5126590  29.9200120  60.1570370   8.0186650  31.7088200  57.7117460
   7.3998090  32.1645700  57.1411900   8.8738430  31.8639660  57.3107160
   7.2124900  27.6927190  59.3184500   7.1433180  26.7517130  59.1573630
   7.9744760  27.7828600  59.8907070   8.2430070  20.4997570  59.5453430
   8.6194890  19.6269450  59.4327100   8.1449580  20.8356270  58.6543870
   2.3735080  18.8723200  55.0070870   2.4801830  19.7726930  55.3139630
   1.4627440  18.8241170  54.7165520  12.0254190  17.9948010  56.4781770
  12.8463810  17.5044580  56.5207250  12.0588270  18.5845670  57.2313610
   4.2142810  21.8409570  59.3396050   4.7221030  22.3390540  59.9801070
   4.7456050  21.0644770  59.1635410  16.3153740  20.0114760  63.0425400
  15.6105910  20.3996470  62.5240510  16.5811660  20.7065050  63.6446330
   2.4978910  16.4808130  63.6059470   2.4997350  16.9980520  62.8005370
   1.6683220  16.0038310  63.5829400   8.8850000  26.5927440  55.1049370
   8.2667270  27.0576890  54.5412090   9.3973250  27.2854920  55.5218880
   3.7481760  26.1203310  61.7832970   3.4151140  26.7472230  62.4254040
   3.9248440  26.6465190  61.0034640  12.2615670  19.9348390  59.2509310
  11.5571240  20.2233280  59.8312420  12.6227830  20.7448500  58.8908870
   2.9600860  28.0884110  63.5982150   3.5774860  28.7635190  63.3166600
   2.0993980  28.4972090  63.5069650  13.8778450  29.5523520  61.5136790
  13.1941970  30.2222630  61.5053460  14.4172740  29.7504170  60.7481650
  15.3302590  19.3803180  59.6418520  14.3827500  19.4142160  59.7733950
  15.6552580  20.1942130  60.0267880   5.8622130  15.6800360  57.9374510
   6.1697110  15.1247250  57.2210010   4.9322830  15.8144820  57.7547500
  11.4137190  31.3967650  60.2281970  11.4264350  30.9929940  59.3604230
  10.8612410  32.1714940  60.1243400  12.7082610  28.1183870  55.3172140
  12.5978940  27.1758200  55.4421560  12.7050860  28.4799510  56.2034900
  10.8122630  26.2997490  61.5564580  11.2291420  26.0857600  60.7218040
  11.5362450  26.5570280  62.1273200   8.2502890  23.7449190  54.6734630
   7.3232170  23.6786570  54.9023100   8.4027710  24.6829320  54.5589870
   8.2371970  20.0166190  51.6701790   7.2975640  20.1780150  51.7554250
   8.5555230  20.7351870  51.1237780  14.7584730  24.6984710  61.6480820
  13.9303360  24.7677800  61.1730950  15.3535210  25.2839020  61.1796650
  12.2800180  25.3069490  55.1769880  11.6612600  24.9689040  54.5296180
  12.2624630  24.6629250  55.8849070  11.7226740  21.4854030  62.5935690
  11.3097920  22.3107740  62.8475680  10.9902690  20.8999070  62.4012050
   3.8559530  24.2713930  57.4554360   3.4516530  23.5591180  56.9600260
   3.9422650  23.9267170  58.3442400   4.3241230  27.9581490  59.6193570
   4.0269520  27.3526960  58.9401350   5.2741050  27.9958800  59.5082930
   2.5688150  21.0457140  61.2353400   3.1202740  21.1552480  60.4606650
   3.0831660  21.4194740  61.9508630  12.4126840  31.5313360  63.2816670
  11.9357400  32.3385550  63.0889280  11.7288630  30.8791690  63.4342880
   3.4159660  27.6963180  66.2701370   2.5188190  27.9203150  66.5174770
   3.4412530  27.8198120  65.3212770  10.4564880  24.5456300  52.1842630
  10.8958160  23.7078730  52.0380450  11.1693300  25.1785700  52.2706770
   8.5660260  29.4852370  56.1523870   9.0056170  30.2276700  55.7379260
   8.5047150  29.7278940  57.0762830   4.0411230  30.5098200  67.0543890
   4.0126660  30.9141150  66.1872320   3.8776200  29.5808560  66.8915490
  14.0382020  15.7999110  50.4983670  13.7254680  15.8925940  51.3982740
  14.7994490  16.3780140  50.4481100  15.9926050  31.2925300  68.3508060
  16.4685770  31.7708190  69.0297140  16.6133210  31.2242790  67.6253560
  15.3959300  28.4838150  65.5108070  15.5222360  28.2450030  64.5925250
  15.4380680  27.6522690  65.9830150   9.2576040  32.1866150  64.0802880
   9.7720710  32.0974160  64.8825310   8.4145120  32.5325850  64.3730790
  11.2330440  32.4721490  53.5086880  11.0731580  32.1824430  54.4068710
  11.0677150  31.6961620  52.9732110   3.7118820  32.2520020  55.2858500
   3.5361300  31.3355560  55.0726300   2.8574560  32.6107310  55.5256300
  10.9356570  29.9809050  52.0684880  10.2421730  29.9786340  51.4087160
  11.6779430  29.5568370  51.6379050  10.5006500  31.6071760  56.1433370
  10.9563450  30.8261140  56.4571990  10.8399020  32.3178580  56.6874550
  15.2483310  20.5370610  66.4757810  14.6327580  21.0450280  65.9473270
  14.9279730  19.6368940  66.4183750   3.0227820  16.5093980  58.3384680
   2.5795970  17.2903520  58.0069200   3.5812810  16.8323870  59.0455620
   7.3097630  19.3762500  63.9420000   6.8477000  19.5845520  64.7539940
   6.9075740  18.5621850  63.6390670  12.3102140  20.5971450  65.0716660
  11.4595730  20.2977200  65.3925730  12.1503930  20.8413460  64.1600480
   9.4051850  22.0973200  67.1715450   9.7305260  21.2636950  66.8317680
  10.1932180  22.6201720  67.3193780   6.1386640  16.1304680  53.2190510
   5.5140820  16.1264550  53.9443820   6.0516760  15.2635640  52.8226480
   5.0603720  17.0541310  60.1974280   5.3576050  17.9604140  60.1166300
   5.6089280  16.5660090  59.5833850   2.8142040  21.6327550  56.0665930
   2.5882960  21.4164720  56.9712550   2.0334570  22.0656010  55.7211900
  10.0439800  21.6390920  54.6656580   9.4448690  22.3626720  54.4820200
  10.5919410  21.5767700  53.8833030   5.2541250  22.5313130  66.7326200
   5.1584850  21.5907860  66.5826600   6.0973230  22.7528200  66.3374270
   8.6504670  20.2754460  56.6959860   9.0434240  20.5926660  55.8828550
   9.0121520  19.3966340  56.8104380   6.9596840  19.0261770  67.9556720
   6.2695160  18.8333970  68.5902810   7.7029140  19.3096410  68.4881020
   9.2359810  22.8660210  60.7910640   8.5040930  23.3747020  61.1400740
   8.8384150  22.0490190  60.4899420   5.6737200  19.5414410  59.1963130
   5.6773260  19.1004360  58.3467670   6.5688320  19.8631740  59.3034950
   5.7357350  20.5426490  52.1869890   5.8570170  20.5012970  53.1355710
   5.3505860  21.4050640  52.0316620   9.6985720  18.3193890  60.2033580
   9.7158460  18.7702540  61.0475430   9.4501300  17.4199530  60.4167020
   4.7478850  22.8527630  51.5853190   4.1795750  22.4045880  50.9589100
   5.4567850  23.2120410  51.0518340  13.1256470  15.7326070  66.0419960
  13.4502240  15.0015730  66.5677940  13.1612980  15.4139710  65.1400950
   5.9745170  23.6016190  60.9428540   6.3415300  23.1274760  61.6889880
   5.7850230  24.4757760  61.2836880   3.7644540  22.6424830  63.2612750
   3.4601610  23.5216810  63.4863110   4.7191000  22.7024620  63.2970190
   2.2926330  26.8485820  53.8579600   1.5188590  26.3083440  53.6978320
   3.0220960  26.3292430  53.5197360  13.0514310  25.8451180  59.6505990
  13.7713430  26.3406470  59.2602100  12.8496130  25.1669070  59.0059860
   8.5124250  17.2389140  53.7935380   7.6988860  16.7402310  53.7180690
   8.3186200  18.0787390  53.3771730   8.4333110  25.9160240  65.5374990
   8.3670420  24.9955910  65.2832580   7.8038250  26.0135680  66.2519630
  11.2272640  21.6108790  52.0897540  12.1152260  21.9226020  51.9148880
  11.1977730  20.7381040  51.6978120   2.3363730  26.5166200  57.4958410
   2.8542400  25.7134460  57.4415300   1.8847750  26.4545340  58.3375240
   7.2233230  27.7832480  52.7685710   7.5648930  28.5274710  52.2729030
   6.3945940  28.0963600  53.1310540   3.0221390  23.9411810  67.2923660
   2.7221530  24.0868990  66.3951480   3.7932630  23.3817100  67.1997050
   8.3649840  28.7380810  65.2878790   8.3794380  27.8061770  65.0697700
   7.6574940  28.8240570  65.9268560  13.4986910  22.9220630  51.5577400
  13.4150630  23.3534850  50.7073840  14.2181100  23.3818980  51.9904220
  14.5761050  25.3788150  64.6347370  13.8509240  25.9716930  64.4376760
  15.1036510  25.3711690  63.8360740  14.5274160  29.7762890  54.2859530
  13.8850320  29.1218510  54.5603250  14.1404820  30.1817980  53.5100200
  10.1060640  27.1048320  58.1331220  10.4584460  26.5076450  57.4732590
   9.2222970  26.7792550  58.3039470   6.1923920  27.8646010  55.5401630
   6.8795050  28.4115220  55.9209220   5.4056340  28.4086740  55.5751240
   5.4951130  24.8692040  55.1526990   5.9513910  25.6797290  55.3787180
   5.1439340  24.5515180  55.9845480   7.7983740  30.3798380  62.3819290
   8.4425960  30.5857760  63.0592710   8.1613180  29.6186780  61.9290140
   9.0715820  28.3830730  61.0996740   9.7138050  27.6823890  61.2128910
   9.5965170  29.1629170  60.9193630  12.9171540  28.6679350  50.8235880
  12.6909120  27.9509790  51.4160520  12.5267740  28.4191790  49.9857630
  10.8453440  29.1825630  64.3032800  11.1809680  29.7692320  64.9810720
   9.9253780  29.0518340  64.5330590  12.4987790  26.5851290  52.4850040
  12.2109490  27.0463980  53.2727920  13.2939960  26.1249060  52.7534260
   6.6742020  29.2316960  67.4720860   6.3538890  28.5126200  68.0166550
   6.0000380  29.9072030  67.5456920   4.7156190  30.0777410  52.4154010
   4.7066290  30.8107100  51.7998520   3.7954550  29.8308990  52.5080970
   9.8895620  19.4643120  62.8357660  10.2576440  18.6438330  63.1637230
   9.0293820  19.5245010  63.2513310  13.2557650  18.4200060  53.6445220
  12.6270810  18.5245730  52.9303450  12.7609570  18.6396840  54.4339100
   7.7015790  30.1405650  51.0779200   7.8027770  29.9369640  50.1481180
   6.8017530  29.8863930  51.2826980   5.2241680  20.6986010  55.0603100
   4.5157830  21.1672350  55.5016710   5.5086160  20.0408020  55.6948290
   6.8497610  22.1182710  63.0595630   7.3482860  22.5928530  63.7247480
   6.9920560  21.1946230  63.2665660   9.2557110  17.4236670  56.4998890
   9.1324890  17.4422800  55.5508400  10.2041670  17.4715610  56.6197290
   6.3433900  32.6591970  55.7726870   6.5975400  32.6213360  54.8506240
   5.3946380  32.5325300  55.7655120   3.4276700  19.0071090  52.4353810
   4.2767230  19.4441240  52.3694000   3.0607970  19.3191350  53.2625870
  14.0564470  18.3350670  63.9024020  13.5538070  19.0756070  64.2417830
  14.8721130  18.7234670  63.5860810  12.3486480  23.5783850  57.3485380
  11.4076620  23.5934080  57.5233070  12.6630550  22.7919810  57.7945680
   2.3268120  25.2603450  50.9089340   3.0931390  25.1484810  51.4714770
   2.4042810  24.5641420  50.2566110  14.3512060  30.7492700  59.0239640
  14.4759480  31.5723870  59.4963450  15.2177620  30.5383430  58.6763790
   1.8229590  32.8423910  58.6956770   2.5592070  32.2939370  58.9665340
   2.2070510  33.7079920  58.5562760   4.9331900  32.0154220  50.5182340
   5.7260510  32.3043050  50.0664130   4.4136250  31.5846390  49.8394820
   9.6652500  28.1349850  67.8317760   9.0590660  28.1581450  67.0913510
   9.3606610  27.4032890  68.3685010  11.0952870  31.8630140  66.4427170
  12.0474620  31.7788160  66.3927410  10.9481090  32.5271850  67.1160960
  13.9862070  31.2424350  51.9419080  13.7003580  30.8289490  51.1273260
  13.7881620  32.1712060  51.8219600   5.4509300  27.2357630  50.3824690
   5.3459940  26.6209980  51.1086070   5.2833520  26.7123520  49.5987700
   5.6023620  25.9214430  66.3613920   4.8369290  26.4899430  66.2768590
   5.7839580  25.6290640  65.4682150   8.6912030  26.2977660  50.9866680
   8.1422130  26.7446960  51.6309420   9.3131290  25.7926910  51.5104350
  12.7446970  27.6519760  66.9188940  13.4856440  27.9895520  66.4156400
  11.9819650  27.8211820  66.3658710   4.3587150  25.2568580  52.8831980
   4.7803570  25.0908450  53.7263370   4.4837990  24.4468810  52.3887120
   2.5214570  21.2365130  65.6902960   1.9911030  20.7456080  65.0626300
   3.1902640  21.6649330  65.1560890   6.8714790  24.2806190  50.1309080
   7.3920450  23.5655210  49.7650230   7.5183190  24.9192060  50.4309590
  11.4192630  25.7034590  65.4544150  11.8333650  25.8579670  66.3034570
  10.4843630  25.8289810  65.6169930  11.8914800  23.0430750  67.4583300
  12.4735570  22.2883070  67.3703780  12.0676570  23.5738190  66.6814780
   3.0086870  18.2027500  65.7700250   2.9143740  17.5848250  65.0451120
   2.4284260  18.9293790  65.5430160   5.7748310  16.7600740  62.8027640
   5.3265610  16.7825000  61.9573190   5.1413510  16.3619760  63.3997940
   6.1807860  25.6555070  63.4240080   6.5995970  26.4987800  63.2516320
   5.2616490  25.7927110  63.1946860   8.5171760  23.3871250  64.8077920
   8.6367970  22.7912390  65.5472760   9.3765760  23.4240940  64.3879220
  10.8559660  23.9408440  63.3840430  10.3294880  24.4651060  62.7805570
  11.1991000  24.5735830  64.0150160   3.2546050  21.3301810  49.8290140
   3.0535110  20.4669170  50.1903480   3.0838100  21.2435170  48.8911740
   4.0315280  31.9608080  64.5397810   3.4936370  32.6854140  64.2206510
   4.2849240  31.4838420  63.7495150   5.2840530  19.9292600  66.0653740
   5.8740220  19.6208450  66.7531560   4.4660770  19.4572350  66.2213640
  10.1033960  19.5458410  66.2986760   9.4149480  18.8839950  66.2336750
  10.8239980  19.0996680  66.7435220  10.7334360  16.1410040  52.3577020
  11.0136650  15.2977940  52.7136440   9.9600090  16.3733150  52.8715770
   2.0528850  18.4302430  49.8168020   2.3554750  18.4369860  48.9087170
   2.7923440  18.0800290  50.3135680   6.8877490  33.1959290  64.7984460
   6.8136190  34.0994430  65.1056830   5.9856330  32.8771190  64.7706530
   5.2713780  17.3737050  50.8024220   4.9235780  16.6961040  50.2226670
   5.4726550  16.9126560  51.6167610   7.4362820  32.3617800  52.4210820
   8.3313610  32.7002770  52.4429580   7.4680450  31.6397210  51.7935100
   2.8866700  28.8542890  55.7620050   2.5862240  28.7307860  56.6623960
   2.7804190  27.9951480  55.3535780  14.4157170  30.8921470  65.1277020
  13.8159160  30.9514030  64.3840940  14.5451070  29.9526450  65.2573870
  15.6558620  28.6339290  50.4646730  14.8251580  28.7015940  50.9353960
  15.8330450  29.5243410  50.1613590  15.1115080  25.3786770  52.9680930
  15.8733990  25.9483420  53.0740620  15.1269450  24.8113970  53.7389240
  16.1175050  26.2336870  57.8122860  16.4883880  25.4504190  57.4058830
  16.7576980  26.9225970  57.6340160  13.1008810  27.6173450  63.2253180
  12.2868650  28.0470610  63.4878970  13.5083010  28.2291860  62.6122230
  15.1634250  25.6721140  50.1253450  15.4383090  26.5800020  49.9972670
  14.9744990  25.6083670  51.0615440  11.5609860  18.6965990  51.4207080
  11.9794740  18.5096970  50.5803740  11.2545920  17.8445040  51.7310010
  15.0599590  23.6090130  55.1182880  14.6843190  22.8418060  54.6864170
  14.3302710  23.9912830  55.6057810  14.4499210  22.7561650  64.7522400
  14.2185300  22.5274400  63.8520350  14.7103760  23.6761200  64.7067290
  12.8887280  17.9818080  67.5302100  13.7657460  17.9901480  67.9136100
  12.9008120  17.2448920  66.9194450  14.3350550  21.8347620  58.4190120
  14.8588030  21.3410270  57.7880290  14.9209970  21.9697980  59.1637690
  14.5140270  21.9187490  61.9409670  13.5642980  21.8851030  62.0554660
  14.6953280  22.8287600  61.7059440  13.8250520  21.0920970  54.3582530
  14.3209640  20.8591840  55.1431410  13.6266590  20.2532810  53.9420170
  15.2537680  19.7281920  56.8920210  15.1436960  19.5737960  57.8302480
  16.0145270  19.2002860  56.6495620  13.6003400  15.6676050  63.3503210
  14.2375620  16.2810190  63.7162400  13.7478290  15.7036710  62.4052440
  16.1427950  17.5589840  50.1326350  17.0677260  17.4271020  49.9244640
  16.1203740  17.6382660  51.0862800  16.2166440  18.3300500  52.7583060
  15.4217940  18.2645620  53.2875970  16.4209720  19.2651140  52.7468410
  13.1584860  32.3692050  56.7521450  13.7543930  32.0476620  56.0755870
  13.4163010  31.8963870  57.5434720   4.7653460  30.3569550  62.5021800
   4.5244820  30.6244110  61.6152320   5.7056100  30.5275280  62.5572660
   6.9707880  16.8202240  66.2578310   6.9096770  17.4124070  67.0073720
   7.9108260  16.7128200  66.1128570   9.6082440  16.4772300  65.8970600
  10.2222850  16.7951590  65.2351680  10.1532000  15.9920890  66.5166460
  16.0257620  32.3763930  63.3032440  15.5315900  32.7732800  62.5859570
  15.4170910  31.7513140  63.6969720  10.3490480  15.0404440  62.2239890
   9.4750320  15.3739550  62.0212820  10.2401230  14.5677620  63.0491760
  11.2562460  17.2475310  63.6081610  10.9275820  16.4327070  63.2283340
  12.2044760  17.2045120  63.4847300  13.7097070  33.0187350  60.5819180
  13.2500040  33.7703160  60.2077200  13.0809530  32.2993820  60.5233980
   4.1392790  31.3275590  59.7567310   4.6557810  30.7162950  59.2315570
   4.7890170  31.8304370  60.2478320   6.8788290  32.2184080  60.5836290
   7.1666100  31.9638380  59.7069300   7.3911510  31.6661440  61.1741860
   8.0965300  15.9574280  61.1632800   7.3137090  16.4319780  61.4429560
   7.8028230  15.0529110  61.0545980  12.6486370  16.6597380  59.2081890
  13.0894460  16.6042480  58.3603490  12.3793960  17.5755390  59.2792070
  14.5124940  16.2912620  57.2190710  14.4513340  15.3473840  57.0721730
  15.2916970  16.3992710  57.7644170   5.9819520  18.3761030  56.6748830
   5.1694030  18.0017920  56.3344710   6.4861160  17.6206110  56.9770020
  10.4844500  15.0403480  57.9131900  11.0873870  15.6123690  58.3880420
   9.7437490  15.6042920  57.6905800  13.6279100  15.4425040  53.1872180
  13.8229730  16.3408490  53.4539610  12.8408970  15.2112120  53.6805130
   1.8130860  16.7885810  52.2248490   2.3423620  16.0015610  52.0956440
   2.4459180  17.4677000  52.4584020   4.0068700  16.5260950  55.2793880
   3.3771440  15.8248260  55.4464010   3.4673840  17.2865080  55.0627040
   6.9460650  33.1400180  67.9504490   7.8727960  32.9044450  67.9940450
   6.9311080  33.9672180  67.4690520  15.1805710  32.6825750  54.9478740
  15.3557900  31.9963490  54.3039660  14.4827280  33.2072800  54.5555410
   4.1324260  15.8044930  67.7146370   3.8508530  16.3078530  66.9507190
   4.5143960  15.0066680  67.3488500   3.0233360  33.0720590  52.5014050
   3.7552180  32.7879870  51.9537940   3.2827030  32.8333870  53.3913430
   2.1848150  29.1885320  52.5060380   1.5557030  29.6570420  53.0546210
   2.2995980  28.3434540  52.9406570  10.7339720  15.2198510  68.2926840
  10.6205170  15.5393120  69.1878360  11.5509460  15.6211020  67.9964120
  13.5138210  32.3670040  67.7745530  14.3063530  31.8719270  67.5671490
  13.8071360  33.0460180  68.3821140   9.6397870  23.2390980  38.6561580
   9.5591920  22.3245590  38.3853290   9.2262290  23.7358050  37.9501290
   7.7715910  25.0170000  40.5370850   6.9958010  24.5370440  40.8269420
   8.4228840  24.3375650  40.3627010  11.7923340  29.4230190  39.3169980
  11.3304870  28.6517430  39.6457150  12.6048890  29.4496260  39.8222430
   1.7683000  29.3629900  41.6104630   2.0711040  28.4727640  41.4314850
   2.5126590  29.9200120  41.3826880   8.0186650  31.7088200  38.9373970
   7.3998090  32.1645700  38.3668410   8.8738430  31.8639660  38.5363670
   7.2124900  27.6927190  40.5441010   7.1433180  26.7517130  40.3830140
   7.9744760  27.7828600  41.1163580   8.2430070  20.4997570  40.7709940
   8.6194890  19.6269450  40.6583610   8.1449580  20.8356270  39.8800380
   2.3735080  18.8723200  36.2327380   2.4801830  19.7726930  36.5396140
   1.4627440  18.8241170  35.9422030  12.0254190  17.9948010  37.7038280
  12.8463810  17.5044580  37.7463760  12.0588270  18.5845670  38.4570120
   4.2142810  21.8409570  40.5652560   4.7221030  22.3390540  41.2057580
   4.7456050  21.0644770  40.3891920  16.3153740  20.0114760  44.2681910
  15.6105910  20.3996470  43.7497020  16.5811660  20.7065050  44.8702840
   2.4978910  16.4808130  44.8315980   2.4997350  16.9980520  44.0261880
   1.6683220  16.0038310  44.8085910   8.8850000  26.5927440  36.3305880
   8.2667270  27.0576890  35.7668600   9.3973250  27.2854920  36.7475390
   3.7481760  26.1203310  43.0089480   3.4151140  26.7472230  43.6510550
   3.9248440  26.6465190  42.2291150  12.2615670  19.9348390  40.4765820
  11.5571240  20.2233280  41.0568930  12.6227830  20.7448500  40.1165380
   2.9600860  28.0884110  44.8238660   3.5774860  28.7635190  44.5423110
   2.0993980  28.4972090  44.7326160  13.8778450  29.5523520  42.7393300
  13.1941970  30.2222630  42.7309970  14.4172740  29.7504170  41.9738160
  15.3302590  19.3803180  40.8675030  14.3827500  19.4142160  40.9990460
  15.6552580  20.1942130  41.2524390   5.8622130  15.6800360  39.1631020
   6.1697110  15.1247250  38.4466520   4.9322830  15.8144820  38.9804010
  11.4137190  31.3967650  41.4538480  11.4264350  30.9929940  40.5860740
  10.8612410  32.1714940  41.3499910  12.7082610  28.1183870  36.5428650
  12.5978940  27.1758200  36.6678070  12.7050860  28.4799510  37.4291410
  10.8122630  26.2997490  42.7821090  11.2291420  26.0857600  41.9474550
  11.5362450  26.5570280  43.3529710   8.2502890  23.7449190  35.8991140
   7.3232170  23.6786570  36.1279610   8.4027710  24.6829320  35.7846380
   8.2371970  20.0166190  32.8958300   7.2975640  20.1780150  32.9810760
   8.5555230  20.7351870  32.3494290  14.7584730  24.6984710  42.8737330
  13.9303360  24.7677800  42.3987460  15.3535210  25.2839020  42.4053160
  12.2800180  25.3069490  36.4026390  11.6612600  24.9689040  35.7552690
  12.2624630  24.6629250  37.1105580  11.7226740  21.4854030  43.8192200
  11.3097920  22.3107740  44.0732190  10.9902690  20.8999070  43.6268560
   3.8559530  24.2713930  38.6810870   3.4516530  23.5591180  38.1856770
   3.9422650  23.9267170  39.5698910   4.3241230  27.9581490  40.8450080
   4.0269520  27.3526960  40.1657860   5.2741050  27.9958800  40.7339440
   2.5688150  21.0457140  42.4609910   3.1202740  21.1552480  41.6863160
   3.0831660  21.4194740  43.1765140  12.4126840  31.5313360  44.5073180
  11.9357400  32.3385550  44.3145790  11.7288630  30.8791690  44.6599390
   3.4159660  27.6963180  47.4957880   2.5188190  27.9203150  47.7431280
   3.4412530  27.8198120  46.5469280  10.4564880  24.5456300  33.4099140
  10.8958160  23.7078730  33.2636960  11.1693300  25.1785700  33.4963280
   8.5660260  29.4852370  37.3780380   9.0056170  30.2276700  36.9635770
   8.5047150  29.7278940  38.3019340   4.0411230  30.5098200  48.2800400
   4.0126660  30.9141150  47.4128830   3.8776200  29.5808560  48.1172000
  14.0382020  15.7999110  31.7240180  13.7254680  15.8925940  32.6239250
  14.7994490  16.3780140  31.6737610  15.9926050  31.2925300  49.5764570
  16.4685770  31.7708190  50.2553650  16.6133210  31.2242790  48.8510070
  15.3959300  28.4838150  46.7364580  15.5222360  28.2450030  45.8181760
  15.4380680  27.6522690  47.2086660   9.2576040  32.1866150  45.3059390
   9.7720710  32.0974160  46.1081820   8.4145120  32.5325850  45.5987300
  11.2330440  32.4721490  34.7343390  11.0731580  32.1824430  35.6325220
  11.0677150  31.6961620  34.1988620   3.7118820  32.2520020  36.5115010
   3.5361300  31.3355560  36.2982810   2.8574560  32.6107310  36.7512810
  10.9356570  29.9809050  33.2941390  10.2421730  29.9786340  32.6343670
  11.6779430  29.5568370  32.8635560  10.5006500  31.6071760  37.3689880
  10.9563450  30.8261140  37.6828500  10.8399020  32.3178580  37.9131060
  15.2483310  20.5370610  47.7014320  14.6327580  21.0450280  47.1729780
  14.9279730  19.6368940  47.6440260   3.0227820  16.5093980  39.5641190
   2.5795970  17.2903520  39.2325710   3.5812810  16.8323870  40.2712130
   7.3097630  19.3762500  45.1676510   6.8477000  19.5845520  45.9796450
   6.9075740  18.5621850  44.8647180  12.3102140  20.5971450  46.2973170
  11.4595730  20.2977200  46.6182240  12.1503930  20.8413460  45.3856990
   9.4051850  22.0973200  48.3971960   9.7305260  21.2636950  48.0574190
  10.1932180  22.6201720  48.5450290   6.1386640  16.1304680  34.4447020
   5.5140820  16.1264550  35.1700330   6.0516760  15.2635640  34.0482990
   5.0603720  17.0541310  41.4230790   5.3576050  17.9604140  41.3422810
   5.6089280  16.5660090  40.8090360   2.8142040  21.6327550  37.2922440
   2.5882960  21.4164720  38.1969060   2.0334570  22.0656010  36.9468410
  10.0439800  21.6390920  35.8913090   9.4448690  22.3626720  35.7076710
  10.5919410  21.5767700  35.1089540   5.2541250  22.5313130  47.9582710
   5.1584850  21.5907860  47.8083110   6.0973230  22.7528200  47.5630780
   8.6504670  20.2754460  37.9216370   9.0434240  20.5926660  37.1085060
   9.0121520  19.3966340  38.0360890   6.9596840  19.0261770  49.1813230
   6.2695160  18.8333970  49.8159320   7.7029140  19.3096410  49.7137530
   9.2359810  22.8660210  42.0167150   8.5040930  23.3747020  42.3657250
   8.8384150  22.0490190  41.7155930   5.6737200  19.5414410  40.4219640
   5.6773260  19.1004360  39.5724180   6.5688320  19.8631740  40.5291460
   5.7357350  20.5426490  33.4126400   5.8570170  20.5012970  34.3612220
   5.3505860  21.4050640  33.2573130   9.6985720  18.3193890  41.4290090
   9.7158460  18.7702540  42.2731940   9.4501300  17.4199530  41.6423530
   4.7478850  22.8527630  32.8109700   4.1795750  22.4045880  32.1845610
   5.4567850  23.2120410  32.2774850  13.1256470  15.7326070  47.2676470
  13.4502240  15.0015730  47.7934450  13.1612980  15.4139710  46.3657460
   5.9745170  23.6016190  42.1685050   6.3415300  23.1274760  42.9146390
   5.7850230  24.4757760  42.5093390   3.7644540  22.6424830  44.4869260
   3.4601610  23.5216810  44.7119620   4.7191000  22.7024620  44.5226700
   2.2926330  26.8485820  35.0836110   1.5188590  26.3083440  34.9234830
   3.0220960  26.3292430  34.7453870  13.0514310  25.8451180  40.8762500
  13.7713430  26.3406470  40.4858610  12.8496130  25.1669070  40.2316370
   8.5124250  17.2389140  35.0191890   7.6988860  16.7402310  34.9437200
   8.3186200  18.0787390  34.6028240   8.4333110  25.9160240  46.7631500
   8.3670420  24.9955910  46.5089090   7.8038250  26.0135680  47.4776140
  11.2272640  21.6108790  33.3154050  12.1152260  21.9226020  33.1405390
  11.1977730  20.7381040  32.9234630   2.3363730  26.5166200  38.7214920
   2.8542400  25.7134460  38.6671810   1.8847750  26.4545340  39.5631750
   7.2233230  27.7832480  33.9942220   7.5648930  28.5274710  33.4985540
   6.3945940  28.0963600  34.3567050   3.0221390  23.9411810  48.5180170
   2.7221530  24.0868990  47.6207990   3.7932630  23.3817100  48.4253560
   8.3649840  28.7380810  46.5135300   8.3794380  27.8061770  46.2954210
   7.6574940  28.8240570  47.1525070  13.4986910  22.9220630  32.7833910
  13.4150630  23.3534850  31.9330350  14.2181100  23.3818980  33.2160730
  14.5761050  25.3788150  45.8603880  13.8509240  25.9716930  45.6633270
  15.1036510  25.3711690  45.0617250  14.5274160  29.7762890  35.5116040
  13.8850320  29.1218510  35.7859760  14.1404820  30.1817980  34.7356710
  10.1060640  27.1048320  39.3587730  10.4584460  26.5076450  38.6989100
   9.2222970  26.7792550  39.5295980   6.1923920  27.8646010  36.7658140
   6.8795050  28.4115220  37.1465730   5.4056340  28.4086740  36.8007750
   5.4951130  24.8692040  36.3783500   5.9513910  25.6797290  36.6043690
   5.1439340  24.5515180  37.2101990   7.7983740  30.3798380  43.6075800
   8.4425960  30.5857760  44.2849220   8.1613180  29.6186780  43.1546650
   9.0715820  28.3830730  42.3253250   9.7138050  27.6823890  42.4385420
   9.5965170  29.1629170  42.1450140  12.9171540  28.6679350  32.0492390
  12.6909120  27.9509790  32.6417030  12.5267740  28.4191790  31.2114140
  10.8453440  29.1825630  45.5289310  11.1809680  29.7692320  46.2067230
   9.9253780  29.0518340  45.7587100  12.4987790  26.5851290  33.7106550
  12.2109490  27.0463980  34.4984430  13.2939960  26.1249060  33.9790770
   6.6742020  29.2316960  48.6977370   6.3538890  28.5126200  49.2423060
   6.0000380  29.9072030  48.7713430   4.7156190  30.0777410  33.6410520
   4.7066290  30.8107100  33.0255030   3.7954550  29.8308990  33.7337480
   9.8895620  19.4643120  44.0614170  10.2576440  18.6438330  44.3893740
   9.0293820  19.5245010  44.4769820  13.2557650  18.4200060  34.8701730
  12.6270810  18.5245730  34.1559960  12.7609570  18.6396840  35.6595610
   7.7015790  30.1405650  32.3035710   7.8027770  29.9369640  31.3737690
   6.8017530  29.8863930  32.5083490   5.2241680  20.6986010  36.2859610
   4.5157830  21.1672350  36.7273220   5.5086160  20.0408020  36.9204800
   6.8497610  22.1182710  44.2852140   7.3482860  22.5928530  44.9503990
   6.9920560  21.1946230  44.4922170   9.2557110  17.4236670  37.7255400
   9.1324890  17.4422800  36.7764910  10.2041670  17.4715610  37.8453800
   6.3433900  32.6591970  36.9983380   6.5975400  32.6213360  36.0762750
   5.3946380  32.5325300  36.9911630   3.4276700  19.0071090  33.6610320
   4.2767230  19.4441240  33.5950510   3.0607970  19.3191350  34.4882380
  14.0564470  18.3350670  45.1280530  13.5538070  19.0756070  45.4674340
  14.8721130  18.7234670  44.8117320  12.3486480  23.5783850  38.5741890
  11.4076620  23.5934080  38.7489580  12.6630550  22.7919810  39.0202190
   2.3268120  25.2603450  32.1345850   3.0931390  25.1484810  32.6971280
   2.4042810  24.5641420  31.4822620  14.3512060  30.7492700  40.2496150
  14.4759480  31.5723870  40.7219960  15.2177620  30.5383430  39.9020300
   1.8229590  32.8423910  39.9213280   2.5592070  32.2939370  40.1921850
   2.2070510  33.7079920  39.7819270   4.9331900  32.0154220  31.7438850
   5.7260510  32.3043050  31.2920640   4.4136250  31.5846390  31.0651330
   9.6652500  28.1349850  49.0574270   9.0590660  28.1581450  48.3170020
   9.3606610  27.4032890  49.5941520  11.0952870  31.8630140  47.6683680
  12.0474620  31.7788160  47.6183920  10.9481090  32.5271850  48.3417470
  13.9862070  31.2424350  33.1675590  13.7003580  30.8289490  32.3529770
  13.7881620  32.1712060  33.0476110   5.4509300  27.2357630  31.6081200
   5.3459940  26.6209980  32.3342580   5.2833520  26.7123520  30.8244210
   5.6023620  25.9214430  47.5870430   4.8369290  26.4899430  47.5025100
   5.7839580  25.6290640  46.6938660   8.6912030  26.2977660  32.2123190
   8.1422130  26.7446960  32.8565930   9.3131290  25.7926910  32.7360860
  12.7446970  27.6519760  48.1445450  13.4856440  27.9895520  47.6412910
  11.9819650  27.8211820  47.5915220   4.3587150  25.2568580  34.1088490
   4.7803570  25.0908450  34.9519880   4.4837990  24.4468810  33.6143630
   2.5214570  21.2365130  46.9159470   1.9911030  20.7456080  46.2882810
   3.1902640  21.6649330  46.3817400   6.8714790  24.2806190  31.3565590
   7.3920450  23.5655210  30.9906740   7.5183190  24.9192060  31.6566100
  11.4192630  25.7034590  46.6800660  11.8333650  25.8579670  47.5291080
  10.4843630  25.8289810  46.8426440  11.8914800  23.0430750  48.6839810
  12.4735570  22.2883070  48.5960290  12.0676570  23.5738190  47.9071290
   3.0086870  18.2027500  46.9956760   2.9143740  17.5848250  46.2707630
   2.4284260  18.9293790  46.7686670   5.7748310  16.7600740  44.0284150
   5.3265610  16.7825000  43.1829700   5.1413510  16.3619760  44.6254450
   6.1807860  25.6555070  44.6496590   6.5995970  26.4987800  44.4772830
   5.2616490  25.7927110  44.4203370   8.5171760  23.3871250  46.0334430
   8.6367970  22.7912390  46.7729270   9.3765760  23.4240940  45.6135730
  10.8559660  23.9408440  44.6096940  10.3294880  24.4651060  44.0062080
  11.1991000  24.5735830  45.2406670   3.2546050  21.3301810  31.0546650
   3.0535110  20.4669170  31.4159990   3.0838100  21.2435170  30.1168250
   4.0315280  31.9608080  45.7654320   3.4936370  32.6854140  45.4463020
   4.2849240  31.4838420  44.9751660   5.2840530  19.9292600  47.2910250
   5.8740220  19.6208450  47.9788070   4.4660770  19.4572350  47.4470150
  10.1033960  19.5458410  47.5243270   9.4149480  18.8839950  47.4593260
  10.8239980  19.0996680  47.9691730  10.7334360  16.1410040  33.5833530
  11.0136650  15.2977940  33.9392950   9.9600090  16.3733150  34.0972280
   2.0528850  18.4302430  31.0424530   2.3554750  18.4369860  30.1343680
   2.7923440  18.0800290  31.5392190   6.8877490  33.1959290  46.0240970
   6.8136190  34.0994430  46.3313340   5.9856330  32.8771190  45.9963040
   5.2713780  17.3737050  32.0280730   4.9235780  16.6961040  31.4483180
   5.4726550  16.9126560  32.8424120   7.4362820  32.3617800  33.6467330
   8.3313610  32.7002770  33.6686090   7.4680450  31.6397210  33.0191610
   2.8866700  28.8542890  36.9876560   2.5862240  28.7307860  37.8880470
   2.7804190  27.9951480  36.5792290  14.4157170  30.8921470  46.3533530
  13.8159160  30.9514030  45.6097450  14.5451070  29.9526450  46.4830380
  15.6558620  28.6339290  31.6903240  14.8251580  28.7015940  32.1610470
  15.8330450  29.5243410  31.3870100  15.1115080  25.3786770  34.1937440
  15.8733990  25.9483420  34.2997130  15.1269450  24.8113970  34.9645750
  16.1175050  26.2336870  39.0379370  16.4883880  25.4504190  38.6315340
  16.7576980  26.9225970  38.8596670  13.1008810  27.6173450  44.4509690
  12.2868650  28.0470610  44.7135480  13.5083010  28.2291860  43.8378740
  15.1634250  25.6721140  31.3509960  15.4383090  26.5800020  31.2229180
  14.9744990  25.6083670  32.2871950  11.5609860  18.6965990  32.6463590
  11.9794740  18.5096970  31.8060250  11.2545920  17.8445040  32.9566520
  15.0599590  23.6090130  36.3439390  14.6843190  22.8418060  35.9120680
  14.3302710  23.9912830  36.8314320  14.4499210  22.7561650  45.9778910
  14.2185300  22.5274400  45.0776860  14.7103760  23.6761200  45.9323800
  12.8887280  17.9818080  48.7558610  13.7657460  17.9901480  49.1392610
  12.9008120  17.2448920  48.1450960  14.3350550  21.8347620  39.6446630
  14.8588030  21.3410270  39.0136800  14.9209970  21.9697980  40.3894200
  14.5140270  21.9187490  43.1666180  13.5642980  21.8851030  43.2811170
  14.6953280  22.8287600  42.9315950  13.8250520  21.0920970  35.5839040
  14.3209640  20.8591840  36.3687920  13.6266590  20.2532810  35.1676680
  15.2537680  19.7281920  38.1176720  15.1436960  19.5737960  39.0558990
  16.0145270  19.2002860  37.8752130  13.6003400  15.6676050  44.5759720
  14.2375620  16.2810190  44.9418910  13.7478290  15.7036710  43.6308950
  16.1427950  17.5589840  31.3582860  17.0677260  17.4271020  31.1501150
  16.1203740  17.6382660  32.3119310  16.2166440  18.3300500  33.9839570
  15.4217940  18.2645620  34.5132480  16.4209720  19.2651140  33.9724920
  13.1584860  32.3692050  37.9777960  13.7543930  32.0476620  37.3012380
  13.4163010  31.8963870  38.7691230   4.7653460  30.3569550  43.7278310
   4.5244820  30.6244110  42.8408830   5.7056100  30.5275280  43.7829170
   6.9707880  16.8202240  47.4834820   6.9096770  17.4124070  48.2330230
   7.9108260  16.7128200  47.3385080   9.6082440  16.4772300  47.1227110
  10.2222850  16.7951590  46.4608190  10.1532000  15.9920890  47.7422970
  16.0257620  32.3763930  44.5288950  15.5315900  32.7732800  43.8116080
  15.4170910  31.7513140  44.9226230  10.3490480  15.0404440  43.4496400
   9.4750320  15.3739550  43.2469330  10.2401230  14.5677620  44.2748270
  11.2562460  17.2475310  44.8338120  10.9275820  16.4327070  44.4539850
  12.2044760  17.2045120  44.7103810  13.7097070  33.0187350  41.8075690
  13.2500040  33.7703160  41.4333710  13.0809530  32.2993820  41.7490490
   4.1392790  31.3275590  40.9823820   4.6557810  30.7162950  40.4572080
   4.7890170  31.8304370  41.4734830   6.8788290  32.2184080  41.8092800
   7.1666100  31.9638380  40.9325810   7.3911510  31.6661440  42.3998370
   8.0965300  15.9574280  42.3889310   7.3137090  16.4319780  42.6686070
   7.8028230  15.0529110  42.2802490  12.6486370  16.6597380  40.4338400
  13.0894460  16.6042480  39.5860000  12.3793960  17.5755390  40.5048580
  14.5124940  16.2912620  38.4447220  14.4513340  15.3473840  38.2978240
  15.2916970  16.3992710  38.9900680   5.9819520  18.3761030  37.9005340
   5.1694030  18.0017920  37.5601220   6.4861160  17.6206110  38.2026530
  10.4844500  15.0403480  39.1388410  11.0873870  15.6123690  39.6136930
   9.7437490  15.6042920  38.9162310  13.6279100  15.4425040  34.4128690
  13.8229730  16.3408490  34.6796120  12.8408970  15.2112120  34.9061640
   1.8130860  16.7885810  33.4505000   2.3423620  16.0015610  33.3212950
   2.4459180  17.4677000  33.6840530   4.0068700  16.5260950  36.5050390
   3.3771440  15.8248260  36.6720520   3.4673840  17.2865080  36.2883550
   6.9460650  33.1400180  49.1761000   7.8727960  32.9044450  49.2196960
   6.9311080  33.9672180  48.6947030  15.1805710  32.6825750  36.1735250
  15.3557900  31.9963490  35.5296170  14.4827280  33.2072800  35.7811920
   4.1324260  15.8044930  48.9402880   3.8508530  16.3078530  48.1763700
   4.5143960  15.0066680  48.5745010   3.0233360  33.0720590  33.7270560
   3.7552180  32.7879870  33.1794450   3.2827030  32.8333870  34.6169940
   2.1848150  29.1885320  33.7316890   1.5557030  29.6570420  34.2802720
   2.2995980  28.3434540  34.1663080  10.7339720  15.2198510  49.5183350
  10.6205170  15.5393120  50.4134870  11.5509460  15.6211020  49.2220630
  13.5138210  32.3670040  49.0002040  14.3063530  31.8719270  48.7928000
  13.8071360  33.0460180  49.6077650   9.6397870  23.2390980  19.8818090
   9.5591920  22.3245590  19.6109800   9.2262290  23.7358050  19.1757800
   7.7715910  25.0170000  21.7627360   6.9958010  24.5370440  22.0525930
   8.4228840  24.3375650  21.5883520  11.7923340  29.4230190  20.5426490
  11.3304870  28.6517430  20.8713660  12.6048890  29.4496260  21.0478940
   1.7683000  29.3629900  22.8361140   2.0711040  28.4727640  22.6571360
   2.5126590  29.9200120  22.6083390   8.0186650  31.7088200  20.1630480
   7.3998090  32.1645700  19.5924920   8.8738430  31.8639660  19.7620180
   7.2124900  27.6927190  21.7697520   7.1433180  26.7517130  21.6086650
   7.9744760  27.7828600  22.3420090   8.2430070  20.4997570  21.9966450
   8.6194890  19.6269450  21.8840120   8.1449580  20.8356270  21.1056890
   2.3735080  18.8723200  17.4583890   2.4801830  19.7726930  17.7652650
   1.4627440  18.8241170  17.1678540  12.0254190  17.9948010  18.9294790
  12.8463810  17.5044580  18.9720270  12.0588270  18.5845670  19.6826630
   4.2142810  21.8409570  21.7909070   4.7221030  22.3390540  22.4314090
   4.7456050  21.0644770  21.6148430  16.3153740  20.0114760  25.4938420
  15.6105910  20.3996470  24.9753530  16.5811660  20.7065050  26.0959350
   2.4978910  16.4808130  26.0572490   2.4997350  16.9980520  25.2518390
   1.6683220  16.0038310  26.0342420   8.8850000  26.5927440  17.5562390
   8.2667270  27.0576890  16.9925110   9.3973250  27.2854920  17.9731900
   3.7481760  26.1203310  24.2345990   3.4151140  26.7472230  24.8767060
   3.9248440  26.6465190  23.4547660  12.2615670  19.9348390  21.7022330
  11.5571240  20.2233280  22.2825440  12.6227830  20.7448500  21.3421890
   2.9600860  28.0884110  26.0495170   3.5774860  28.7635190  25.7679620
   2.0993980  28.4972090  25.9582670  13.8778450  29.5523520  23.9649810
  13.1941970  30.2222630  23.9566480  14.4172740  29.7504170  23.1994670
  15.3302590  19.3803180  22.0931540  14.3827500  19.4142160  22.2246970
  15.6552580  20.1942130  22.4780900   5.8622130  15.6800360  20.3887530
   6.1697110  15.1247250  19.6723030   4.9322830  15.8144820  20.2060520
  11.4137190  31.3967650  22.6794990  11.4264350  30.9929940  21.8117250
  10.8612410  32.1714940  22.5756420  12.7082610  28.1183870  17.7685160
  12.5978940  27.1758200  17.8934580  12.7050860  28.4799510  18.6547920
  10.8122630  26.2997490  24.0077600  11.2291420  26.0857600  23.1731060
  11.5362450  26.5570280  24.5786220   8.2502890  23.7449190  17.1247650
   7.3232170  23.6786570  17.3536120   8.4027710  24.6829320  17.0102890
   8.2371970  20.0166190  14.1214810   7.2975640  20.1780150  14.2067270
   8.5555230  20.7351870  13.5750800  14.7584730  24.6984710  24.0993840
  13.9303360  24.7677800  23.6243970  15.3535210  25.2839020  23.6309670
  12.2800180  25.3069490  17.6282900  11.6612600  24.9689040  16.9809200
  12.2624630  24.6629250  18.3362090  11.7226740  21.4854030  25.0448710
  11.3097920  22.3107740  25.2988700  10.9902690  20.8999070  24.8525070
   3.8559530  24.2713930  19.9067380   3.4516530  23.5591180  19.4113280
   3.9422650  23.9267170  20.7955420   4.3241230  27.9581490  22.0706590
   4.0269520  27.3526960  21.3914370   5.2741050  27.9958800  21.9595950
   2.5688150  21.0457140  23.6866420   3.1202740  21.1552480  22.9119670
   3.0831660  21.4194740  24.4021650  12.4126840  31.5313360  25.7329690
  11.9357400  32.3385550  25.5402300  11.7288630  30.8791690  25.8855900
   3.4159660  27.6963180  28.7214390   2.5188190  27.9203150  28.9687790
   3.4412530  27.8198120  27.7725790  10.4564880  24.5456300  14.6355650
  10.8958160  23.7078730  14.4893470  11.1693300  25.1785700  14.7219790
   8.5660260  29.4852370  18.6036890   9.0056170  30.2276700  18.1892280
   8.5047150  29.7278940  19.5275850   4.0411230  30.5098200  29.5056910
   4.0126660  30.9141150  28.6385340   3.8776200  29.5808560  29.3428510
  14.0382020  15.7999110  12.9496690  13.7254680  15.8925940  13.8495760
  14.7994490  16.3780140  12.8994120  15.9926050  31.2925300  30.8021080
  16.4685770  31.7708190  31.4810160  16.6133210  31.2242790  30.0766580
  15.3959300  28.4838150  27.9621090  15.5222360  28.2450030  27.0438270
  15.4380680  27.6522690  28.4343170   9.2576040  32.1866150  26.5315900
   9.7720710  32.0974160  27.3338330   8.4145120  32.5325850  26.8243810
  11.2330440  32.4721490  15.9599900  11.0731580  32.1824430  16.8581730
  11.0677150  31.6961620  15.4245130   3.7118820  32.2520020  17.7371520
   3.5361300  31.3355560  17.5239320   2.8574560  32.6107310  17.9769320
  10.9356570  29.9809050  14.5197900  10.2421730  29.9786340  13.8600180
  11.6779430  29.5568370  14.0892070  10.5006500  31.6071760  18.5946390
  10.9563450  30.8261140  18.9085010  10.8399020  32.3178580  19.1387570
  15.2483310  20.5370610  28.9270830  14.6327580  21.0450280  28.3986290
  14.9279730  19.6368940  28.8696770   3.0227820  16.5093980  20.7897700
   2.5795970  17.2903520  20.4582220   3.5812810  16.8323870  21.4968640
   7.3097630  19.3762500  26.3933020   6.8477000  19.5845520  27.2052960
   6.9075740  18.5621850  26.0903690  12.3102140  20.5971450  27.5229680
  11.4595730  20.2977200  27.8438750  12.1503930  20.8413460  26.6113500
   9.4051850  22.0973200  29.6228470   9.7305260  21.2636950  29.2830700
  10.1932180  22.6201720  29.7706800   6.1386640  16.1304680  15.6703530
   5.5140820  16.1264550  16.3956840   6.0516760  15.2635640  15.2739500
   5.0603720  17.0541310  22.6487300   5.3576050  17.9604140  22.5679320
   5.6089280  16.5660090  22.0346870   2.8142040  21.6327550  18.5178950
   2.5882960  21.4164720  19.4225570   2.0334570  22.0656010  18.1724920
  10.0439800  21.6390920  17.1169600   9.4448690  22.3626720  16.9333220
  10.5919410  21.5767700  16.3346050   5.2541250  22.5313130  29.1839220
   5.1584850  21.5907860  29.0339620   6.0973230  22.7528200  28.7887290
   8.6504670  20.2754460  19.1472880   9.0434240  20.5926660  18.3341570
   9.0121520  19.3966340  19.2617400   6.9596840  19.0261770  30.4069740
   6.2695160  18.8333970  31.0415830   7.7029140  19.3096410  30.9394040
   9.2359810  22.8660210  23.2423660   8.5040930  23.3747020  23.5913760
   8.8384150  22.0490190  22.9412440   5.6737200  19.5414410  21.6476150
   5.6773260  19.1004360  20.7980690   6.5688320  19.8631740  21.7547970
   5.7357350  20.5426490  14.6382910   5.8570170  20.5012970  15.5868730
   5.3505860  21.4050640  14.4829640   9.6985720  18.3193890  22.6546600
   9.7158460  18.7702540  23.4988450   9.4501300  17.4199530  22.8680040
   4.7478850  22.8527630  14.0366210   4.1795750  22.4045880  13.4102120
   5.4567850  23.2120410  13.5031360  13.1256470  15.7326070  28.4932980
  13.4502240  15.0015730  29.0190960  13.1612980  15.4139710  27.5913970
   5.9745170  23.6016190  23.3941560   6.3415300  23.1274760  24.1402900
   5.7850230  24.4757760  23.7349900   3.7644540  22.6424830  25.7125770
   3.4601610  23.5216810  25.9376130   4.7191000  22.7024620  25.7483210
   2.2926330  26.8485820  16.3092620   1.5188590  26.3083440  16.1491340
   3.0220960  26.3292430  15.9710380  13.0514310  25.8451180  22.1019010
  13.7713430  26.3406470  21.7115120  12.8496130  25.1669070  21.4572880
   8.5124250  17.2389140  16.2448400   7.6988860  16.7402310  16.1693710
   8.3186200  18.0787390  15.8284750   8.4333110  25.9160240  27.9888010
   8.3670420  24.9955910  27.7345600   7.8038250  26.0135680  28.7032650
  11.2272640  21.6108790  14.5410560  12.1152260  21.9226020  14.3661900
  11.1977730  20.7381040  14.1491140   2.3363730  26.5166200  19.9471430
   2.8542400  25.7134460  19.8928320   1.8847750  26.4545340  20.7888260
   7.2233230  27.7832480  15.2198730   7.5648930  28.5274710  14.7242050
   6.3945940  28.0963600  15.5823560   3.0221390  23.9411810  29.7436680
   2.7221530  24.0868990  28.8464500   3.7932630  23.3817100  29.6510070
   8.3649840  28.7380810  27.7391810   8.3794380  27.8061770  27.5210720
   7.6574940  28.8240570  28.3781580  13.4986910  22.9220630  14.0090420
  13.4150630  23.3534850  13.1586860  14.2181100  23.3818980  14.4417240
  14.5761050  25.3788150  27.0860390  13.8509240  25.9716930  26.8889780
  15.1036510  25.3711690  26.2873760  14.5274160  29.7762890  16.7372550
  13.8850320  29.1218510  17.0116270  14.1404820  30.1817980  15.9613220
  10.1060640  27.1048320  20.5844240  10.4584460  26.5076450  19.9245610
   9.2222970  26.7792550  20.7552490   6.1923920  27.8646010  17.9914650
   6.8795050  28.4115220  18.3722240   5.4056340  28.4086740  18.0264260
   5.4951130  24.8692040  17.6040010   5.9513910  25.6797290  17.8300200
   5.1439340  24.5515180  18.4358500   7.7983740  30.3798380  24.8332310
   8.4425960  30.5857760  25.5105730   8.1613180  29.6186780  24.3803160
   9.0715820  28.3830730  23.5509760   9.7138050  27.6823890  23.6641930
   9.5965170  29.1629170  23.3706650  12.9171540  28.6679350  13.2748900
  12.6909120  27.9509790  13.8673540  12.5267740  28.4191790  12.4370650
  10.8453440  29.1825630  26.7545820  11.1809680  29.7692320  27.4323740
   9.9253780  29.0518340  26.9843610  12.4987790  26.5851290  14.9363060
  12.2109490  27.0463980  15.7240940  13.2939960  26.1249060  15.2047280
   6.6742020  29.2316960  29.9233880   6.3538890  28.5126200  30.4679570
   6.0000380  29.9072030  29.9969940   4.7156190  30.0777410  14.8667030
   4.7066290  30.8107100  14.2511540   3.7954550  29.8308990  14.9593990
   9.8895620  19.4643120  25.2870680  10.2576440  18.6438330  25.6150250
   9.0293820  19.5245010  25.7026330  13.2557650  18.4200060  16.0958240
  12.6270810  18.5245730  15.3816470  12.7609570  18.6396840  16.8852120
   7.7015790  30.1405650  13.5292220   7.8027770  29.9369640  12.5994200
   6.8017530  29.8863930  13.7340000   5.2241680  20.6986010  17.5116120
   4.5157830  21.1672350  17.9529730   5.5086160  20.0408020  18.1461310
   6.8497610  22.1182710  25.5108650   7.3482860  22.5928530  26.1760500
   6.9920560  21.1946230  25.7178680   9.2557110  17.4236670  18.9511910
   9.1324890  17.4422800  18.0021420  10.2041670  17.4715610  19.0710310
   6.3433900  32.6591970  18.2239890   6.5975400  32.6213360  17.3019260
   5.3946380  32.5325300  18.2168140   3.4276700  19.0071090  14.8866830
   4.2767230  19.4441240  14.8207020   3.0607970  19.3191350  15.7138890
  14.0564470  18.3350670  26.3537040  13.5538070  19.0756070  26.6930850
  14.8721130  18.7234670  26.0373830  12.3486480  23.5783850  19.7998400
  11.4076620  23.5934080  19.9746090  12.6630550  22.7919810  20.2458700
   2.3268120  25.2603450  13.3602360   3.0931390  25.1484810  13.9227790
   2.4042810  24.5641420  12.7079130  14.3512060  30.7492700  21.4752660
  14.4759480  31.5723870  21.9476470  15.2177620  30.5383430  21.1276810
   1.8229590  32.8423910  21.1469790   2.5592070  32.2939370  21.4178360
   2.2070510  33.7079920  21.0075780   4.9331900  32.0154220  12.9695360
   5.7260510  32.3043050  12.5177150   4.4136250  31.5846390  12.2907840
   9.6652500  28.1349850  30.2830780   9.0590660  28.1581450  29.5426530
   9.3606610  27.4032890  30.8198030  11.0952870  31.8630140  28.8940190
  12.0474620  31.7788160  28.8440430  10.9481090  32.5271850  29.5673980
  13.9862070  31.2424350  14.3932100  13.7003580  30.8289490  13.5786280
  13.7881620  32.1712060  14.2732620   5.4509300  27.2357630  12.8337710
   5.3459940  26.6209980  13.5599090   5.2833520  26.7123520  12.0500720
   5.6023620  25.9214430  28.8126940   4.8369290  26.4899430  28.7281610
   5.7839580  25.6290640  27.9195170   8.6912030  26.2977660  13.4379700
   8.1422130  26.7446960  14.0822440   9.3131290  25.7926910  13.9617370
  12.7446970  27.6519760  29.3701960  13.4856440  27.9895520  28.8669420
  11.9819650  27.8211820  28.8171730   4.3587150  25.2568580  15.3345000
   4.7803570  25.0908450  16.1776390   4.4837990  24.4468810  14.8400140
   2.5214570  21.2365130  28.1415980   1.9911030  20.7456080  27.5139320
   3.1902640  21.6649330  27.6073910   6.8714790  24.2806190  12.5822100
   7.3920450  23.5655210  12.2163250   7.5183190  24.9192060  12.8822610
  11.4192630  25.7034590  27.9057170  11.8333650  25.8579670  28.7547590
  10.4843630  25.8289810  28.0682950  11.8914800  23.0430750  29.9096320
  12.4735570  22.2883070  29.8216800  12.0676570  23.5738190  29.1327800
   3.0086870  18.2027500  28.2213270   2.9143740  17.5848250  27.4964140
   2.4284260  18.9293790  27.9943180   5.7748310  16.7600740  25.2540660
   5.3265610  16.7825000  24.4086210   5.1413510  16.3619760  25.8510960
   6.1807860  25.6555070  25.8753100   6.5995970  26.4987800  25.7029340
   5.2616490  25.7927110  25.6459880   8.5171760  23.3871250  27.2590940
   8.6367970  22.7912390  27.9985780   9.3765760  23.4240940  26.8392240
  10.8559660  23.9408440  25.8353450  10.3294880  24.4651060  25.2318590
  11.1991000  24.5735830  26.4663180   3.2546050  21.3301810  12.2803160
   3.0535110  20.4669170  12.6416500   3.0838100  21.2435170  11.3424760
   4.0315280  31.9608080  26.9910830   3.4936370  32.6854140  26.6719530
   4.2849240  31.4838420  26.2008170   5.2840530  19.9292600  28.5166760
   5.8740220  19.6208450  29.2044580   4.4660770  19.4572350  28.6726660
  10.1033960  19.5458410  28.7499780   9.4149480  18.8839950  28.6849770
  10.8239980  19.0996680  29.1948240  10.7334360  16.1410040  14.8090040
  11.0136650  15.2977940  15.1649460   9.9600090  16.3733150  15.3228790
   2.0528850  18.4302430  12.2681040   2.3554750  18.4369860  11.3600190
   2.7923440  18.0800290  12.7648700   6.8877490  33.1959290  27.2497480
   6.8136190  34.0994430  27.5569850   5.9856330  32.8771190  27.2219550
   5.2713780  17.3737050  13.2537240   4.9235780  16.6961040  12.6739690
   5.4726550  16.9126560  14.0680630   7.4362820  32.3617800  14.8723840
   8.3313610  32.7002770  14.8942600   7.4680450  31.6397210  14.2448120
   2.8866700  28.8542890  18.2133070   2.5862240  28.7307860  19.1136980
   2.7804190  27.9951480  17.8048800  14.4157170  30.8921470  27.5790040
  13.8159160  30.9514030  26.8353960  14.5451070  29.9526450  27.7086890
  15.6558620  28.6339290  12.9159750  14.8251580  28.7015940  13.3866980
  15.8330450  29.5243410  12.6126610  15.1115080  25.3786770  15.4193950
  15.8733990  25.9483420  15.5253640  15.1269450  24.8113970  16.1902260
  16.1175050  26.2336870  20.2635880  16.4883880  25.4504190  19.8571850
  16.7576980  26.9225970  20.0853180  13.1008810  27.6173450  25.6766200
  12.2868650  28.0470610  25.9391990  13.5083010  28.2291860  25.0635250
  15.1634250  25.6721140  12.5766470  15.4383090  26.5800020  12.4485690
  14.9744990  25.6083670  13.5128460  11.5609860  18.6965990  13.8720100
  11.9794740  18.5096970  13.0316760  11.2545920  17.8445040  14.1823030
  15.0599590  23.6090130  17.5695900  14.6843190  22.8418060  17.1377190
  14.3302710  23.9912830  18.0570830  14.4499210  22.7561650  27.2035420
  14.2185300  22.5274400  26.3033370  14.7103760  23.6761200  27.1580310
  12.8887280  17.9818080  29.9815120  13.7657460  17.9901480  30.3649120
  12.9008120  17.2448920  29.3707470  14.3350550  21.8347620  20.8703140
  14.8588030  21.3410270  20.2393310  14.9209970  21.9697980  21.6150710
  14.5140270  21.9187490  24.3922690  13.5642980  21.8851030  24.5067680
  14.6953280  22.8287600  24.1572460  13.8250520  21.0920970  16.8095550
  14.3209640  20.8591840  17.5944430  13.6266590  20.2532810  16.3933190
  15.2537680  19.7281920  19.3433230  15.1436960  19.5737960  20.2815500
  16.0145270  19.2002860  19.1008640  13.6003400  15.6676050  25.8016230
  14.2375620  16.2810190  26.1675420  13.7478290  15.7036710  24.8565460
  16.1427950  17.5589840  12.5839370  17.0677260  17.4271020  12.3757660
  16.1203740  17.6382660  13.5375820  16.2166440  18.3300500  15.2096080
  15.4217940  18.2645620  15.7388990  16.4209720  19.2651140  15.1981430
  13.1584860  32.3692050  19.2034470  13.7543930  32.0476620  18.5268890
  13.4163010  31.8963870  19.9947740   4.7653460  30.3569550  24.9534820
   4.5244820  30.6244110  24.0665340   5.7056100  30.5275280  25.0085680
   6.9707880  16.8202240  28.7091330   6.9096770  17.4124070  29.4586740
   7.9108260  16.7128200  28.5641590   9.6082440  16.4772300  28.3483620
  10.2222850  16.7951590  27.6864700  10.1532000  15.9920890  28.9679480
  16.0257620  32.3763930  25.7545460  15.5315900  32.7732800  25.0372590
  15.4170910  31.7513140  26.1482740  10.3490480  15.0404440  24.6752910
   9.4750320  15.3739550  24.4725840  10.2401230  14.5677620  25.5004780
  11.2562460  17.2475310  26.0594630  10.9275820  16.4327070  25.6796360
  12.2044760  17.2045120  25.9360320  13.7097070  33.0187350  23.0332200
  13.2500040  33.7703160  22.6590220  13.0809530  32.2993820  22.9747000
   4.1392790  31.3275590  22.2080330   4.6557810  30.7162950  21.6828590
   4.7890170  31.8304370  22.6991340   6.8788290  32.2184080  23.0349310
   7.1666100  31.9638380  22.1582320   7.3911510  31.6661440  23.6254880
   8.0965300  15.9574280  23.6145820   7.3137090  16.4319780  23.8942580
   7.8028230  15.0529110  23.5059000  12.6486370  16.6597380  21.6594910
  13.0894460  16.6042480  20.8116510  12.3793960  17.5755390  21.7305090
  14.5124940  16.2912620  19.6703730  14.4513340  15.3473840  19.5234750
  15.2916970  16.3992710  20.2157190   5.9819520  18.3761030  19.1261850
   5.1694030  18.0017920  18.7857730   6.4861160  17.6206110  19.4283040
  10.4844500  15.0403480  20.3644920  11.0873870  15.6123690  20.8393440
   9.7437490  15.6042920  20.1418820  13.6279100  15.4425040  15.6385200
  13.8229730  16.3408490  15.9052630  12.8408970  15.2112120  16.1318150
   1.8130860  16.7885810  14.6761510   2.3423620  16.0015610  14.5469460
   2.4459180  17.4677000  14.9097040   4.0068700  16.5260950  17.7306900
   3.3771440  15.8248260  17.8977030   3.4673840  17.2865080  17.5140060
   6.9460650  33.1400180  30.4017510   7.8727960  32.9044450  30.4453470
   6.9311080  33.9672180  29.9203540  15.1805710  32.6825750  17.3991760
  15.3557900  31.9963490  16.7552680  14.4827280  33.2072800  17.0068430
   4.1324260  15.8044930  30.1659390   3.8508530  16.3078530  29.4020210
   4.5143960  15.0066680  29.8001520   3.0233360  33.0720590  14.9527070
   3.7552180  32.7879870  14.4050960   3.2827030  32.8333870  15.8426450
   2.1848150  29.1885320  14.9573400   1.5557030  29.6570420  15.5059230
   2.2995980  28.3434540  15.3919590  10.7339720  15.2198510  30.7439860
  10.6205170  15.5393120  31.6391380  11.5509460  15.6211020  30.4477140
  13.5138210  32.3670040  30.2258550  14.3063530  31.8719270  30.0184510
  13.8071360  33.0460180  30.8334160   7.7715910  25.0170000   2.9883870
   6.9958010  24.5370440   3.2782440   8.4228840  24.3375650   2.8140030
  11.7923340  29.4230190   1.7683000  11.3304870  28.6517430   2.0970170
  12.6048890  29.4496260   2.2735450   1.7683000  29.3629900   4.0617650
   2.0711040  28.4727640   3.8827870   2.5126590  29.9200120   3.8339900
   7.2124900  27.6927190   2.9954030   7.1433180  26.7517130   2.8343160
   7.9744760  27.7828600   3.5676600   8.2430070  20.4997570   3.2222960
   8.6194890  19.6269450   3.1096630   8.1449580  20.8356270   2.3313400
   4.2142810  21.8409570   3.0165580   4.7221030  22.3390540   3.6570600
   4.7456050  21.0644770   2.8404940  16.3153740  20.0114760   6.7194930
  15.6105910  20.3996470   6.2010040  16.5811660  20.7065050   7.3215860
   2.4978910  16.4808130   7.2829000   2.4997350  16.9980520   6.4774900
   1.6683220  16.0038310   7.2598930   3.7481760  26.1203310   5.4602500
   3.4151140  26.7472230   6.1023570   3.9248440  26.6465190   4.6804170
  12.2615670  19.9348390   2.9278840  11.5571240  20.2233280   3.5081950
  12.6227830  20.7448500   2.5678400   2.9600860  28.0884110   7.2751680
   3.5774860  28.7635190   6.9936130   2.0993980  28.4972090   7.1839180
  13.8778450  29.5523520   5.1906320  13.1941970  30.2222630   5.1822990
  14.4172740  29.7504170   4.4251180  15.3302590  19.3803180   3.3188050
  14.3827500  19.4142160   3.4503480  15.6552580  20.1942130   3.7037410
  11.4137190  31.3967650   3.9051500  11.4264350  30.9929940   3.0373760
  10.8612410  32.1714940   3.8012930  10.8122630  26.2997490   5.2334110
  11.2291420  26.0857600   4.3987570  11.5362450  26.5570280   5.8042730
  14.7584730  24.6984710   5.3250350  13.9303360  24.7677800   4.8500480
  15.3535210  25.2839020   4.8566180  11.7226740  21.4854030   6.2705220
  11.3097920  22.3107740   6.5245210  10.9902690  20.8999070   6.0781580
   4.3241230  27.9581490   3.2963100   4.0269520  27.3526960   2.6170880
   5.2741050  27.9958800   3.1852460   2.5688150  21.0457140   4.9122930
   3.1202740  21.1552480   4.1376180   3.0831660  21.4194740   5.6278160
  12.4126840  31.5313360   6.9586200  11.9357400  32.3385550   6.7658810
  11.7288630  30.8791690   7.1112410   3.4159660  27.6963180   9.9470900
   2.5188190  27.9203150  10.1944300   3.4412530  27.8198120   8.9982300
   4.0411230  30.5098200  10.7313420   4.0126660  30.9141150   9.8641850
   3.8776200  29.5808560  10.5685020  15.9926050  31.2925300  12.0277590
  16.4685770  31.7708190  12.7066670  16.6133210  31.2242790  11.3023090
  15.3959300  28.4838150   9.1877600  15.5222360  28.2450030   8.2694780
  15.4380680  27.6522690   9.6599680   9.2576040  32.1866150   7.7572410
   9.7720710  32.0974160   8.5594840   8.4145120  32.5325850   8.0500320
  15.2483310  20.5370610  10.1527340  14.6327580  21.0450280   9.6242800
  14.9279730  19.6368940  10.0953280   3.0227820  16.5093980   2.0154210
   2.5795970  17.2903520   1.6838730   3.5812810  16.8323870   2.7225150
   7.3097630  19.3762500   7.6189530   6.8477000  19.5845520   8.4309470
   6.9075740  18.5621850   7.3160200  12.3102140  20.5971450   8.7486190
  11.4595730  20.2977200   9.0695260  12.1503930  20.8413460   7.8370010
   9.4051850  22.0973200  10.8484980   9.7305260  21.2636950  10.5087210
  10.1932180  22.6201720  10.9963310   5.0603720  17.0541310   3.8743810
   5.3576050  17.9604140   3.7935830   5.6089280  16.5660090   3.2603380
   5.2541250  22.5313130  10.4095730   5.1584850  21.5907860  10.2596130
   6.0973230  22.7528200  10.0143800   6.9596840  19.0261770  11.6326250
   6.2695160  18.8333970  12.2672340   7.7029140  19.3096410  12.1650550
   9.2359810  22.8660210   4.4680170   8.5040930  23.3747020   4.8170270
   8.8384150  22.0490190   4.1668950   5.6737200  19.5414410   2.8732660
   5.6773260  19.1004360   2.0237200   6.5688320  19.8631740   2.9804480
   9.6985720  18.3193890   3.8803110   9.7158460  18.7702540   4.7244960
   9.4501300  17.4199530   4.0936550  13.1256470  15.7326070   9.7189490
  13.4502240  15.0015730  10.2447470  13.1612980  15.4139710   8.8170480
   5.9745170  23.6016190   4.6198070   6.3415300  23.1274760   5.3659410
   5.7850230  24.4757760   4.9606410   3.7644540  22.6424830   6.9382280
   3.4601610  23.5216810   7.1632640   4.7191000  22.7024620   6.9739720
  13.0514310  25.8451180   3.3275520  13.7713430  26.3406470   2.9371630
  12.8496130  25.1669070   2.6829390   8.4333110  25.9160240   9.2144520
   8.3670420  24.9955910   8.9602110   7.8038250  26.0135680   9.9289160
   3.0221390  23.9411810  10.9693190   2.7221530  24.0868990  10.0721010
   3.7932630  23.3817100  10.8766580   8.3649840  28.7380810   8.9648320
   8.3794380  27.8061770   8.7467230   7.6574940  28.8240570   9.6038090
  14.5761050  25.3788150   8.3116900  13.8509240  25.9716930   8.1146290
  15.1036510  25.3711690   7.5130270   7.7983740  30.3798380   6.0588820
   8.4425960  30.5857760   6.7362240   8.1613180  29.6186780   5.6059670
   9.0715820  28.3830730   4.7766270   9.7138050  27.6823890   4.8898440
   9.5965170  29.1629170   4.5963160  10.8453440  29.1825630   7.9802330
  11.1809680  29.7692320   8.6580250   9.9253780  29.0518340   8.2100120
   6.6742020  29.2316960  11.1490390   6.3538890  28.5126200  11.6936080
   6.0000380  29.9072030  11.2226450   9.8895620  19.4643120   6.5127190
  10.2576440  18.6438330   6.8406760   9.0293820  19.5245010   6.9282840
   6.8497610  22.1182710   6.7365160   7.3482860  22.5928530   7.4017010
   6.9920560  21.1946230   6.9435190  14.0564470  18.3350670   7.5793550
  13.5538070  19.0756070   7.9187360  14.8721130  18.7234670   7.2630340
  14.3512060  30.7492700   2.7009170  14.4759480  31.5723870   3.1732980
  15.2177620  30.5383430   2.3533320   1.8229590  32.8423910   2.3726300
   2.5592070  32.2939370   2.6434870   2.2070510  33.7079920   2.2332290
   9.6652500  28.1349850  11.5087290   9.0590660  28.1581450  10.7683040
   9.3606610  27.4032890  12.0454540  11.0952870  31.8630140  10.1196700
  12.0474620  31.7788160  10.0696940  10.9481090  32.5271850  10.7930490
   5.6023620  25.9214430  10.0383450   4.8369290  26.4899430   9.9538120
   5.7839580  25.6290640   9.1451680  12.7446970  27.6519760  10.5958470
  13.4856440  27.9895520  10.0925930  11.9819650  27.8211820  10.0428240
   2.5214570  21.2365130   9.3672490   1.9911030  20.7456080   8.7395830
   3.1902640  21.6649330   8.8330420  11.4192630  25.7034590   9.1313680
  11.8333650  25.8579670   9.9804100  10.4843630  25.8289810   9.2939460
  11.8914800  23.0430750  11.1352830  12.4735570  22.2883070  11.0473310
  12.0676570  23.5738190  10.3584310   3.0086870  18.2027500   9.4469780
   2.9143740  17.5848250   8.7220650   2.4284260  18.9293790   9.2199690
   5.7748310  16.7600740   6.4797170   5.3265610  16.7825000   5.6342720
   5.1413510  16.3619760   7.0767470   6.1807860  25.6555070   7.1009610
   6.5995970  26.4987800   6.9285850   5.2616490  25.7927110   6.8716390
   8.5171760  23.3871250   8.4847450   8.6367970  22.7912390   9.2242290
   9.3765760  23.4240940   8.0648750  10.8559660  23.9408440   7.0609960
  10.3294880  24.4651060   6.4575100  11.1991000  24.5735830   7.6919690
   4.0315280  31.9608080   8.2167340   3.4936370  32.6854140   7.8976040
   4.2849240  31.4838420   7.4264680   5.2840530  19.9292600   9.7423270
   5.8740220  19.6208450  10.4301090   4.4660770  19.4572350   9.8983170
  10.1033960  19.5458410   9.9756290   9.4149480  18.8839950   9.9106280
  10.8239980  19.0996680  10.4204750   6.8877490  33.1959290   8.4753990
   6.8136190  34.0994430   8.7826360   5.9856330  32.8771190   8.4476060
  14.4157170  30.8921470   8.8046550  13.8159160  30.9514030   8.0610470
  14.5451070  29.9526450   8.9343400  13.1008810  27.6173450   6.9022710
  12.2868650  28.0470610   7.1648500  13.5083010  28.2291860   6.2891760
  14.4499210  22.7561650   8.4291930  14.2185300  22.5274400   7.5289880
  14.7103760  23.6761200   8.3836820  12.8887280  17.9818080  11.2071630
  13.7657460  17.9901480  11.5905630  12.9008120  17.2448920  10.5963980
  14.5140270  21.9187490   5.6179200  13.5642980  21.8851030   5.7324190
  14.6953280  22.8287600   5.3828970  13.6003400  15.6676050   7.0272740
  14.2375620  16.2810190   7.3931930  13.7478290  15.7036710   6.0821970
   4.7653460  30.3569550   6.1791330   4.5244820  30.6244110   5.2921850
   5.7056100  30.5275280   6.2342190   6.9707880  16.8202240   9.9347840
   6.9096770  17.4124070  10.6843250   7.9108260  16.7128200   9.7898100
   9.6082440  16.4772300   9.5740130  10.2222850  16.7951590   8.9121210
  10.1532000  15.9920890  10.1935990  16.0257620  32.3763930   6.9801970
  15.5315900  32.7732800   6.2629100  15.4170910  31.7513140   7.3739250
  10.3490480  15.0404440   5.9009420   9.4750320  15.3739550   5.6982350
  10.2401230  14.5677620   6.7261290  11.2562460  17.2475310   7.2851140
  10.9275820  16.4327070   6.9052870  12.2044760  17.2045120   7.1616830
  13.7097070  33.0187350   4.2588710  13.2500040  33.7703160   3.8846730
  13.0809530  32.2993820   4.2003510   4.1392790  31.3275590   3.4336840
   4.6557810  30.7162950   2.9085100   4.7890170  31.8304370   3.9247850
   6.8788290  32.2184080   4.2605820   7.1666100  31.9638380   3.3838830
   7.3911510  31.6661440   4.8511390   8.0965300  15.9574280   4.8402330
   7.3137090  16.4319780   5.1199090   7.8028230  15.0529110   4.7315510
  12.6486370  16.6597380   2.8851420  13.0894460  16.6042480   2.0373020
  12.3793960  17.5755390   2.9561600   6.9460650  33.1400180  11.6274020
   7.8727960  32.9044450  11.6709980   6.9311080  33.9672180  11.1460050
   4.1324260  15.8044930  11.3915900   3.8508530  16.3078530  10.6276720
   4.5143960  15.0066680  11.0258030  10.7339720  15.2198510  11.9696370
  10.6205170  15.5393120  12.8647890  11.5509460  15.6211020  11.6733650
  13.5138210  32.3670040  11.4515060  14.3063530  31.8719270  11.2441020
  13.8071360  33.0460180  12.0590670   9.6397870   4.4647490  76.2048560
   9.5591920   3.5502100  75.9340270   9.2262290   4.9614560  75.4988270
   7.7715910   6.2426510  78.0857830   6.9958010   5.7626950  78.3756400
   8.4228840   5.5632160  77.9113990  11.7923340  10.6486700  76.8656960
  11.3304870   9.8773940  77.1944130  12.6048890  10.6752770  77.3709410
   8.0186650  12.9344710  76.4860950   7.3998090  13.3902210  75.9155390
   8.8738430  13.0896170  76.0850650   7.2124900   8.9183700  78.0927990
   7.1433180   7.9773640  77.9317120   7.9744760   9.0085110  78.6650560
   4.2142810   3.0666080  78.1139540   4.7221030   3.5647050  78.7544560
   4.7456050   2.2901280  77.9378900   8.8850000   7.8183950  73.8792860
   8.2667270   8.2833400  73.3155580   9.3973250   8.5111430  74.2962370
  12.7082610   9.3440380  74.0915630  12.5978940   8.4014710  74.2165050
  12.7050860   9.7056020  74.9778390   8.2502890   4.9705700  73.4478120
   7.3232170   4.9043080  73.6766590   8.4027710   5.9085830  73.3333360
  12.2800180   6.5326000  73.9513370  11.6612600   6.1945550  73.3039670
  12.2624630   5.8885760  74.6592560   3.8559530   5.4970440  76.2297850
   3.4516530   4.7847690  75.7343750   3.9422650   5.1523680  77.1185890
   4.3241230   9.1838000  78.3937060   4.0269520   8.5783470  77.7144840
   5.2741050   9.2215310  78.2826420  10.4564880   5.7712810  70.9586120
  10.8958160   4.9335240  70.8123940  11.1693300   6.4042210  71.0450260
   8.5660260  10.7108880  74.9267360   9.0056170  11.4533210  74.5122750
   8.5047150  10.9535450  75.8506320  11.2330440  13.6978000  72.2830370
  11.0731580  13.4080940  73.1812200  11.0677150  12.9218130  71.7475600
   3.7118820  13.4776530  74.0601990   3.5361300  12.5612070  73.8469790
   2.8574560  13.8363820  74.2999790  10.9356570  11.2065560  70.8428370
  10.2421730  11.2042850  70.1830650  11.6779430  10.7824880  70.4122540
  10.5006500  12.8328270  74.9176860  10.9563450  12.0517650  75.2315480
  10.8399020  13.5435090  75.4618040   2.8142040   2.8584060  74.8409420
   2.5882960   2.6421230  75.7456040   2.0334570   3.2912520  74.4955390
  10.0439800   2.8647430  73.4400070   9.4448690   3.5883230  73.2563690
  10.5919410   2.8024210  72.6576520   5.7357350   1.7683000  70.9613380
   5.8570170   1.7269480  71.9099200   5.3505860   2.6307150  70.8060110
   4.7478850   4.0784140  70.3596680   4.1795750   3.6302390  69.7332590
   5.4567850   4.4376920  69.8261830   2.2926330   8.0742330  72.6323090
   1.5188590   7.5339950  72.4721810   3.0220960   7.5548940  72.2940850
  13.0514310   7.0707690  78.4249480  13.7713430   7.5662980  78.0345590
  12.8496130   6.3925580  77.7803350  11.2272640   2.8365300  70.8641030
  12.1152260   3.1482530  70.6892370  11.1977730   1.9637550  70.4721610
   2.3363730   7.7422710  76.2701900   2.8542400   6.9390970  76.2158790
   1.8847750   7.6801850  77.1118730   7.2233230   9.0088990  71.5429200
   7.5648930   9.7531220  71.0472520   6.3945940   9.3220110  71.9054030
  13.4986910   4.1477140  70.3320890  13.4150630   4.5791360  69.4817330
  14.2181100   4.6075490  70.7647710  14.5274160  11.0019400  73.0603020
  13.8850320  10.3475020  73.3346740  14.1404820  11.4074490  72.2843690
  10.1060640   8.3304830  76.9074710  10.4584460   7.7332960  76.2476080
   9.2222970   8.0049060  77.0782960   6.1923920   9.0902520  74.3145120
   6.8795050   9.6371730  74.6952710   5.4056340   9.6343250  74.3494730
   5.4951130   6.0948550  73.9270480   5.9513910   6.9053800  74.1530670
   5.1439340   5.7771690  74.7588970  12.9171540   9.8935860  69.5979370
  12.6909120   9.1766300  70.1904010  12.5267740   9.6448300  68.7601120
  12.4987790   7.8107800  71.2593530  12.2109490   8.2720490  72.0471410
  13.2939960   7.3505570  71.5277750   4.7156190  11.3033920  71.1897500
   4.7066290  12.0363610  70.5742010   3.7954550  11.0565500  71.2824460
   7.7015790  11.3662160  69.8522690   7.8027770  11.1626150  68.9224670
   6.8017530  11.1120440  70.0570470   6.3433900  13.8848480  74.5470360
   6.5975400  13.8469870  73.6249730   5.3946380  13.7581810  74.5398610
  12.3486480   4.8040360  76.1228870  11.4076620   4.8190590  76.2976560
  12.6630550   4.0176320  76.5689170   2.3268120   6.4859960  69.6832830
   3.0931390   6.3741320  70.2458260   2.4042810   5.7897930  69.0309600
  14.3512060  11.9749210  77.7983130  14.4759480  12.7980380  78.2706940
  15.2177620  11.7639940  77.4507280   1.8229590  14.0680420  77.4700260
   2.5592070  13.5195880  77.7408830   2.2070510  14.9336430  77.3306250
   4.9331900  13.2410730  69.2925830   5.7260510  13.5299560  68.8407620
   4.4136250  12.8102900  68.6138310  13.9862070  12.4680860  70.7162570
  13.7003580  12.0546000  69.9016750  13.7881620  13.3968570  70.5963090
   5.4509300   8.4614140  69.1568180   5.3459940   7.8466490  69.8829560
   5.2833520   7.9380030  68.3731190   8.6912030   7.5234170  69.7610170
   8.1422130   7.9703470  70.4052910   9.3131290   7.0183420  70.2847840
   4.3587150   6.4825090  71.6575470   4.7803570   6.3164960  72.5006860
   4.4837990   5.6725320  71.1630610   6.8714790   5.5062700  68.9052570
   7.3920450   4.7911720  68.5393720   7.5183190   6.1448570  69.2053080
   3.2546050   2.5558320  68.6033630   3.0535110   1.6925680  68.9646970
   3.0838100   2.4691680  67.6655230   7.4362820  13.5874310  71.1954310
   8.3313610  13.9259280  71.2173070   7.4680450  12.8653720  70.5678590
   2.8866700  10.0799400  74.5363540   2.5862240   9.9564370  75.4367450
   2.7804190   9.2207990  74.1279270  15.6558620   9.8595800  69.2390220
  14.8251580   9.9272450  69.7097450  15.8330450  10.7499920  68.9357080
  15.1115080   6.6043280  71.7424420  15.8733990   7.1739930  71.8484110
  15.1269450   6.0370480  72.5132730  16.1175050   7.4593380  76.5866350
  16.4883880   6.6760700  76.1802320  16.7576980   8.1482480  76.4083650
  15.1634250   6.8977650  68.8996940  15.4383090   7.8056530  68.7716160
  14.9744990   6.8340180  69.8358930  15.0599590   4.8346640  73.8926370
  14.6843190   4.0674570  73.4607660  14.3302710   5.2169340  74.3801300
  14.3350550   3.0604130  77.1933610  14.8588030   2.5666780  76.5623780
  14.9209970   3.1954490  77.9381180  13.8250520   2.3177480  73.1326020
  14.3209640   2.0848350  73.9174900  13.6266590   1.4789320  72.7163660
  13.1584860  13.5948560  75.5264940  13.7543930  13.2733130  74.8499360
  13.4163010  13.1220380  76.3178210  15.1805710  13.9082260  73.7222230
  15.3557900  13.2220000  73.0783150  14.4827280  14.4329310  73.3298900
   3.0233360  14.2977100  71.2757540   3.7552180  14.0136380  70.7281430
   3.2827030  14.0590380  72.1656920   2.1848150  10.4141830  71.2803870
   1.5557030  10.8826930  71.8289700   2.2995980   9.5691050  71.7150060
   9.6397870   4.4647490  57.4305070   9.5591920   3.5502100  57.1596780
   9.2262290   4.9614560  56.7244780   7.7715910   6.2426510  59.3114340
   6.9958010   5.7626950  59.6012910   8.4228840   5.5632160  59.1370500
  11.7923340  10.6486700  58.0913470  11.3304870   9.8773940  58.4200640
  12.6048890  10.6752770  58.5965920   1.7683000  10.5886410  60.3848120
   2.0711040   9.6984150  60.2058340   2.5126590  11.1456630  60.1570370
   8.0186650  12.9344710  57.7117460   7.3998090  13.3902210  57.1411900
   8.8738430  13.0896170  57.3107160   7.2124900   8.9183700  59.3184500
   7.1433180   7.9773640  59.1573630   7.9744760   9.0085110  59.8907070
   4.2142810   3.0666080  59.3396050   4.7221030   3.5647050  59.9801070
   4.7456050   2.2901280  59.1635410   8.8850000   7.8183950  55.1049370
   8.2667270   8.2833400  54.5412090   9.3973250   8.5111430  55.5218880
   3.7481760   7.3459820  61.7832970   3.4151140   7.9728740  62.4254040
   3.9248440   7.8721700  61.0034640   2.9600860   9.3140620  63.5982150
   3.5774860   9.9891700  63.3166600   2.0993980   9.7228600  63.5069650
  13.8778450  10.7780030  61.5136790  13.1941970  11.4479140  61.5053460
  14.4172740  10.9760680  60.7481650  11.4137190  12.6224160  60.2281970
  11.4264350  12.2186450  59.3604230  10.8612410  13.3971450  60.1243400
  12.7082610   9.3440380  55.3172140  12.5978940   8.4014710  55.4421560
  12.7050860   9.7056020  56.2034900  10.8122630   7.5254000  61.5564580
  11.2291420   7.3114110  60.7218040  11.5362450   7.7826790  62.1273200
   8.2502890   4.9705700  54.6734630   7.3232170   4.9043080  54.9023100
   8.4027710   5.9085830  54.5589870  14.7584730   5.9241220  61.6480820
  13.9303360   5.9934310  61.1730950  15.3535210   6.5095530  61.1796650
  12.2800180   6.5326000  55.1769880  11.6612600   6.1945550  54.5296180
  12.2624630   5.8885760  55.8849070  11.7226740   2.7110540  62.5935690
  11.3097920   3.5364250  62.8475680  10.9902690   2.1255580  62.4012050
   3.8559530   5.4970440  57.4554360   3.4516530   4.7847690  56.9600260
   3.9422650   5.1523680  58.3442400   4.3241230   9.1838000  59.6193570
   4.0269520   8.5783470  58.9401350   5.2741050   9.2215310  59.5082930
   2.5688150   2.2713650  61.2353400   3.1202740   2.3808990  60.4606650
   3.0831660   2.6451250  61.9508630  12.4126840  12.7569870  63.2816670
  11.9357400  13.5642060  63.0889280  11.7288630  12.1048200  63.4342880
   3.4159660   8.9219690  66.2701370   2.5188190   9.1459660  66.5174770
   3.4412530   9.0454630  65.3212770  10.4564880   5.7712810  52.1842630
  10.8958160   4.9335240  52.0380450  11.1693300   6.4042210  52.2706770
   8.5660260  10.7108880  56.1523870   9.0056170  11.4533210  55.7379260
   8.5047150  10.9535450  57.0762830   4.0411230  11.7354710  67.0543890
   4.0126660  12.1397660  66.1872320   3.8776200  10.8065070  66.8915490
  15.9926050  12.5181810  68.3508060  16.4685770  12.9964700  69.0297140
  16.6133210  12.4499300  67.6253560  15.3959300   9.7094660  65.5108070
  15.5222360   9.4706540  64.5925250  15.4380680   8.8779200  65.9830150
   9.2576040  13.4122660  64.0802880   9.7720710  13.3230670  64.8825310
   8.4145120  13.7582360  64.3730790  11.2330440  13.6978000  53.5086880
  11.0731580  13.4080940  54.4068710  11.0677150  12.9218130  52.9732110
   3.7118820  13.4776530  55.2858500   3.5361300  12.5612070  55.0726300
   2.8574560  13.8363820  55.5256300  10.9356570  11.2065560  52.0684880
  10.2421730  11.2042850  51.4087160  11.6779430  10.7824880  51.6379050
  10.5006500  12.8328270  56.1433370  10.9563450  12.0517650  56.4571990
  10.8399020  13.5435090  56.6874550  12.3102140   1.8227960  65.0716660
  11.4595730   1.5233710  65.3925730  12.1503930   2.0669970  64.1600480
   9.4051850   3.3229710  67.1715450   9.7305260   2.4893460  66.8317680
  10.1932180   3.8458230  67.3193780   2.8142040   2.8584060  56.0665930
   2.5882960   2.6421230  56.9712550   2.0334570   3.2912520  55.7211900
  10.0439800   2.8647430  54.6656580   9.4448690   3.5883230  54.4820200
  10.5919410   2.8024210  53.8833030   5.2541250   3.7569640  66.7326200
   5.1584850   2.8164370  66.5826600   6.0973230   3.9784710  66.3374270
   9.2359810   4.0916720  60.7910640   8.5040930   4.6003530  61.1400740
   8.8384150   3.2746700  60.4899420   5.7357350   1.7683000  52.1869890
   5.8570170   1.7269480  53.1355710   5.3505860   2.6307150  52.0316620
   4.7478850   4.0784140  51.5853190   4.1795750   3.6302390  50.9589100
   5.4567850   4.4376920  51.0518340   5.9745170   4.8272700  60.9428540
   6.3415300   4.3531270  61.6889880   5.7850230   5.7014270  61.2836880
   3.7644540   3.8681340  63.2612750   3.4601610   4.7473320  63.4863110
   4.7191000   3.9281130  63.2970190   2.2926330   8.0742330  53.8579600
   1.5188590   7.5339950  53.6978320   3.0220960   7.5548940  53.5197360
  13.0514310   7.0707690  59.6505990  13.7713430   7.5662980  59.2602100
  12.8496130   6.3925580  59.0059860   8.4333110   7.1416750  65.5374990
   8.3670420   6.2212420  65.2832580   7.8038250   7.2392190  66.2519630
  11.2272640   2.8365300  52.0897540  12.1152260   3.1482530  51.9148880
  11.1977730   1.9637550  51.6978120   2.3363730   7.7422710  57.4958410
   2.8542400   6.9390970  57.4415300   1.8847750   7.6801850  58.3375240
   7.2233230   9.0088990  52.7685710   7.5648930   9.7531220  52.2729030
   6.3945940   9.3220110  53.1310540   3.0221390   5.1668320  67.2923660
   2.7221530   5.3125500  66.3951480   3.7932630   4.6073610  67.1997050
   8.3649840   9.9637320  65.2878790   8.3794380   9.0318280  65.0697700
   7.6574940  10.0497080  65.9268560  13.4986910   4.1477140  51.5577400
  13.4150630   4.5791360  50.7073840  14.2181100   4.6075490  51.9904220
  14.5761050   6.6044660  64.6347370  13.8509240   7.1973440  64.4376760
  15.1036510   6.5968200  63.8360740  14.5274160  11.0019400  54.2859530
  13.8850320  10.3475020  54.5603250  14.1404820  11.4074490  53.5100200
  10.1060640   8.3304830  58.1331220  10.4584460   7.7332960  57.4732590
   9.2222970   8.0049060  58.3039470   6.1923920   9.0902520  55.5401630
   6.8795050   9.6371730  55.9209220   5.4056340   9.6343250  55.5751240
   5.4951130   6.0948550  55.1526990   5.9513910   6.9053800  55.3787180
   5.1439340   5.7771690  55.9845480   7.7983740  11.6054890  62.3819290
   8.4425960  11.8114270  63.0592710   8.1613180  10.8443290  61.9290140
   9.0715820   9.6087240  61.0996740   9.7138050   8.9080400  61.2128910
   9.5965170  10.3885680  60.9193630  12.9171540   9.8935860  50.8235880
  12.6909120   9.1766300  51.4160520  12.5267740   9.6448300  49.9857630
  10.8453440  10.4082140  64.3032800  11.1809680  10.9948830  64.9810720
   9.9253780  10.2774850  64.5330590  12.4987790   7.8107800  52.4850040
  12.2109490   8.2720490  53.2727920  13.2939960   7.3505570  52.7534260
   6.6742020  10.4573470  67.4720860   6.3538890   9.7382710  68.0166550
   6.0000380  11.1328540  67.5456920   4.7156190  11.3033920  52.4154010
   4.7066290  12.0363610  51.7998520   3.7954550  11.0565500  52.5080970
   7.7015790  11.3662160  51.0779200   7.8027770  11.1626150  50.1481180
   6.8017530  11.1120440  51.2826980   6.8497610   3.3439220  63.0595630
   7.3482860   3.8185040  63.7247480   6.9920560   2.4202740  63.2665660
   6.3433900  13.8848480  55.7726870   6.5975400  13.8469870  54.8506240
   5.3946380  13.7581810  55.7655120  12.3486480   4.8040360  57.3485380
  11.4076620   4.8190590  57.5233070  12.6630550   4.0176320  57.7945680
   2.3268120   6.4859960  50.9089340   3.0931390   6.3741320  51.4714770
   2.4042810   5.7897930  50.2566110  14.3512060  11.9749210  59.0239640
  14.4759480  12.7980380  59.4963450  15.2177620  11.7639940  58.6763790
   1.8229590  14.0680420  58.6956770   2.5592070  13.5195880  58.9665340
   2.2070510  14.9336430  58.5562760   4.9331900  13.2410730  50.5182340
   5.7260510  13.5299560  50.0664130   4.4136250  12.8102900  49.8394820
   9.6652500   9.3606360  67.8317760   9.0590660   9.3837960  67.0913510
   9.3606610   8.6289400  68.3685010  11.0952870  13.0886650  66.4427170
  12.0474620  13.0044670  66.3927410  10.9481090  13.7528360  67.1160960
  13.9862070  12.4680860  51.9419080  13.7003580  12.0546000  51.1273260
  13.7881620  13.3968570  51.8219600   5.4509300   8.4614140  50.3824690
   5.3459940   7.8466490  51.1086070   5.2833520   7.9380030  49.5987700
   5.6023620   7.1470940  66.3613920   4.8369290   7.7155940  66.2768590
   5.7839580   6.8547150  65.4682150   8.6912030   7.5234170  50.9866680
   8.1422130   7.9703470  51.6309420   9.3131290   7.0183420  51.5104350
  12.7446970   8.8776270  66.9188940  13.4856440   9.2152030  66.4156400
  11.9819650   9.0468330  66.3658710   4.3587150   6.4825090  52.8831980
   4.7803570   6.3164960  53.7263370   4.4837990   5.6725320  52.3887120
   2.5214570   2.4621640  65.6902960   1.9911030   1.9712590  65.0626300
   3.1902640   2.8905840  65.1560890   6.8714790   5.5062700  50.1309080
   7.3920450   4.7911720  49.7650230   7.5183190   6.1448570  50.4309590
  11.4192630   6.9291100  65.4544150  11.8333650   7.0836180  66.3034570
  10.4843630   7.0546320  65.6169930  11.8914800   4.2687260  67.4583300
  12.4735570   3.5139580  67.3703780  12.0676570   4.7994700  66.6814780
   6.1807860   6.8811580  63.4240080   6.5995970   7.7244310  63.2516320
   5.2616490   7.0183620  63.1946860   8.5171760   4.6127760  64.8077920
   8.6367970   4.0168900  65.5472760   9.3765760   4.6497450  64.3879220
  10.8559660   5.1664950  63.3840430  10.3294880   5.6907570  62.7805570
  11.1991000   5.7992340  64.0150160   3.2546050   2.5558320  49.8290140
   3.0535110   1.6925680  50.1903480   3.0838100   2.4691680  48.8911740
   4.0315280  13.1864590  64.5397810   3.4936370  13.9110650  64.2206510
   4.2849240  12.7094930  63.7495150   6.8877490  14.4215800  64.7984460
   6.8136190  15.3250940  65.1056830   5.9856330  14.1027700  64.7706530
   7.4362820  13.5874310  52.4210820   8.3313610  13.9259280  52.4429580
   7.4680450  12.8653720  51.7935100   2.8866700  10.0799400  55.7620050
   2.5862240   9.9564370  56.6623960   2.7804190   9.2207990  55.3535780
  14.4157170  12.1177980  65.1277020  13.8159160  12.1770540  64.3840940
  14.5451070  11.1782960  65.2573870  15.6558620   9.8595800  50.4646730
  14.8251580   9.9272450  50.9353960  15.8330450  10.7499920  50.1613590
  15.1115080   6.6043280  52.9680930  15.8733990   7.1739930  53.0740620
  15.1269450   6.0370480  53.7389240  16.1175050   7.4593380  57.8122860
  16.4883880   6.6760700  57.4058830  16.7576980   8.1482480  57.6340160
  13.1008810   8.8429960  63.2253180  12.2868650   9.2727120  63.4878970
  13.5083010   9.4548370  62.6122230  15.1634250   6.8977650  50.1253450
  15.4383090   7.8056530  49.9972670  14.9744990   6.8340180  51.0615440
  15.0599590   4.8346640  55.1182880  14.6843190   4.0674570  54.6864170
  14.3302710   5.2169340  55.6057810  14.4499210   3.9818160  64.7522400
  14.2185300   3.7530910  63.8520350  14.7103760   4.9017710  64.7067290
  14.3350550   3.0604130  58.4190120  14.8588030   2.5666780  57.7880290
  14.9209970   3.1954490  59.1637690  14.5140270   3.1444000  61.9409670
  13.5642980   3.1107540  62.0554660  14.6953280   4.0544110  61.7059440
  13.8250520   2.3177480  54.3582530  14.3209640   2.0848350  55.1431410
  13.6266590   1.4789320  53.9420170  13.1584860  13.5948560  56.7521450
  13.7543930  13.2733130  56.0755870  13.4163010  13.1220380  57.5434720
   4.7653460  11.5826060  62.5021800   4.5244820  11.8500620  61.6152320
   5.7056100  11.7531790  62.5572660  16.0257620  13.6020440  63.3032440
  15.5315900  13.9989310  62.5859570  15.4170910  12.9769650  63.6969720
  13.7097070  14.2443860  60.5819180  13.2500040  14.9959670  60.2077200
  13.0809530  13.5250330  60.5233980   4.1392790  12.5532100  59.7567310
   4.6557810  11.9419460  59.2315570   4.7890170  13.0560880  60.2478320
   6.8788290  13.4440590  60.5836290   7.1666100  13.1894890  59.7069300
   7.3911510  12.8917950  61.1741860   6.9460650  14.3656690  67.9504490
   7.8727960  14.1300960  67.9940450   6.9311080  15.1928690  67.4690520
  15.1805710  13.9082260  54.9478740  15.3557900  13.2220000  54.3039660
  14.4827280  14.4329310  54.5555410   3.0233360  14.2977100  52.5014050
   3.7552180  14.0136380  51.9537940   3.2827030  14.0590380  53.3913430
   2.1848150  10.4141830  52.5060380   1.5557030  10.8826930  53.0546210
   2.2995980   9.5691050  52.9406570  13.5138210  13.5926550  67.7745530
  14.3063530  13.0975780  67.5671490  13.8071360  14.2716690  68.3821140
   9.6397870   4.4647490  38.6561580   9.5591920   3.5502100  38.3853290
   9.2262290   4.9614560  37.9501290   7.7715910   6.2426510  40.5370850
   6.9958010   5.7626950  40.8269420   8.4228840   5.5632160  40.3627010
  11.7923340  10.6486700  39.3169980  11.3304870   9.8773940  39.6457150
  12.6048890  10.6752770  39.8222430   1.7683000  10.5886410  41.6104630
   2.0711040   9.6984150  41.4314850   2.5126590  11.1456630  41.3826880
   8.0186650  12.9344710  38.9373970   7.3998090  13.3902210  38.3668410
   8.8738430  13.0896170  38.5363670   7.2124900   8.9183700  40.5441010
   7.1433180   7.9773640  40.3830140   7.9744760   9.0085110  41.1163580
   4.2142810   3.0666080  40.5652560   4.7221030   3.5647050  41.2057580
   4.7456050   2.2901280  40.3891920   8.8850000   7.8183950  36.3305880
   8.2667270   8.2833400  35.7668600   9.3973250   8.5111430  36.7475390
   3.7481760   7.3459820  43.0089480   3.4151140   7.9728740  43.6510550
   3.9248440   7.8721700  42.2291150   2.9600860   9.3140620  44.8238660
   3.5774860   9.9891700  44.5423110   2.0993980   9.7228600  44.7326160
  13.8778450  10.7780030  42.7393300  13.1941970  11.4479140  42.7309970
  14.4172740  10.9760680  41.9738160  11.4137190  12.6224160  41.4538480
  11.4264350  12.2186450  40.5860740  10.8612410  13.3971450  41.3499910
  12.7082610   9.3440380  36.5428650  12.5978940   8.4014710  36.6678070
  12.7050860   9.7056020  37.4291410  10.8122630   7.5254000  42.7821090
  11.2291420   7.3114110  41.9474550  11.5362450   7.7826790  43.3529710
   8.2502890   4.9705700  35.8991140   7.3232170   4.9043080  36.1279610
   8.4027710   5.9085830  35.7846380  14.7584730   5.9241220  42.8737330
  13.9303360   5.9934310  42.3987460  15.3535210   6.5095530  42.4053160
  12.2800180   6.5326000  36.4026390  11.6612600   6.1945550  35.7552690
  12.2624630   5.8885760  37.1105580  11.7226740   2.7110540  43.8192200
  11.3097920   3.5364250  44.0732190  10.9902690   2.1255580  43.6268560
   3.8559530   5.4970440  38.6810870   3.4516530   4.7847690  38.1856770
   3.9422650   5.1523680  39.5698910   4.3241230   9.1838000  40.8450080
   4.0269520   8.5783470  40.1657860   5.2741050   9.2215310  40.7339440
   2.5688150   2.2713650  42.4609910   3.1202740   2.3808990  41.6863160
   3.0831660   2.6451250  43.1765140  12.4126840  12.7569870  44.5073180
  11.9357400  13.5642060  44.3145790  11.7288630  12.1048200  44.6599390
   3.4159660   8.9219690  47.4957880   2.5188190   9.1459660  47.7431280
   3.4412530   9.0454630  46.5469280  10.4564880   5.7712810  33.4099140
  10.8958160   4.9335240  33.2636960  11.1693300   6.4042210  33.4963280
   8.5660260  10.7108880  37.3780380   9.0056170  11.4533210  36.9635770
   8.5047150  10.9535450  38.3019340   4.0411230  11.7354710  48.2800400
   4.0126660  12.1397660  47.4128830   3.8776200  10.8065070  48.1172000
  15.9926050  12.5181810  49.5764570  16.4685770  12.9964700  50.2553650
  16.6133210  12.4499300  48.8510070  15.3959300   9.7094660  46.7364580
  15.5222360   9.4706540  45.8181760  15.4380680   8.8779200  47.2086660
   9.2576040  13.4122660  45.3059390   9.7720710  13.3230670  46.1081820
   8.4145120  13.7582360  45.5987300  11.2330440  13.6978000  34.7343390
  11.0731580  13.4080940  35.6325220  11.0677150  12.9218130  34.1988620
   3.7118820  13.4776530  36.5115010   3.5361300  12.5612070  36.2982810
   2.8574560  13.8363820  36.7512810  10.9356570  11.2065560  33.2941390
  10.2421730  11.2042850  32.6343670  11.6779430  10.7824880  32.8635560
  10.5006500  12.8328270  37.3689880  10.9563450  12.0517650  37.6828500
  10.8399020  13.5435090  37.9131060  12.3102140   1.8227960  46.2973170
  11.4595730   1.5233710  46.6182240  12.1503930   2.0669970  45.3856990
   9.4051850   3.3229710  48.3971960   9.7305260   2.4893460  48.0574190
  10.1932180   3.8458230  48.5450290   2.8142040   2.8584060  37.2922440
   2.5882960   2.6421230  38.1969060   2.0334570   3.2912520  36.9468410
  10.0439800   2.8647430  35.8913090   9.4448690   3.5883230  35.7076710
  10.5919410   2.8024210  35.1089540   5.2541250   3.7569640  47.9582710
   5.1584850   2.8164370  47.8083110   6.0973230   3.9784710  47.5630780
   9.2359810   4.0916720  42.0167150   8.5040930   4.6003530  42.3657250
   8.8384150   3.2746700  41.7155930   5.7357350   1.7683000  33.4126400
   5.8570170   1.7269480  34.3612220   5.3505860   2.6307150  33.2573130
   4.7478850   4.0784140  32.8109700   4.1795750   3.6302390  32.1845610
   5.4567850   4.4376920  32.2774850   5.9745170   4.8272700  42.1685050
   6.3415300   4.3531270  42.9146390   5.7850230   5.7014270  42.5093390
   3.7644540   3.8681340  44.4869260   3.4601610   4.7473320  44.7119620
   4.7191000   3.9281130  44.5226700   2.2926330   8.0742330  35.0836110
   1.5188590   7.5339950  34.9234830   3.0220960   7.5548940  34.7453870
  13.0514310   7.0707690  40.8762500  13.7713430   7.5662980  40.4858610
  12.8496130   6.3925580  40.2316370   8.4333110   7.1416750  46.7631500
   8.3670420   6.2212420  46.5089090   7.8038250   7.2392190  47.4776140
  11.2272640   2.8365300  33.3154050  12.1152260   3.1482530  33.1405390
  11.1977730   1.9637550  32.9234630   2.3363730   7.7422710  38.7214920
   2.8542400   6.9390970  38.6671810   1.8847750   7.6801850  39.5631750
   7.2233230   9.0088990  33.9942220   7.5648930   9.7531220  33.4985540
   6.3945940   9.3220110  34.3567050   3.0221390   5.1668320  48.5180170
   2.7221530   5.3125500  47.6207990   3.7932630   4.6073610  48.4253560
   8.3649840   9.9637320  46.5135300   8.3794380   9.0318280  46.2954210
   7.6574940  10.0497080  47.1525070  13.4986910   4.1477140  32.7833910
  13.4150630   4.5791360  31.9330350  14.2181100   4.6075490  33.2160730
  14.5761050   6.6044660  45.8603880  13.8509240   7.1973440  45.6633270
  15.1036510   6.5968200  45.0617250  14.5274160  11.0019400  35.5116040
  13.8850320  10.3475020  35.7859760  14.1404820  11.4074490  34.7356710
  10.1060640   8.3304830  39.3587730  10.4584460   7.7332960  38.6989100
   9.2222970   8.0049060  39.5295980   6.1923920   9.0902520  36.7658140
   6.8795050   9.6371730  37.1465730   5.4056340   9.6343250  36.8007750
   5.4951130   6.0948550  36.3783500   5.9513910   6.9053800  36.6043690
   5.1439340   5.7771690  37.2101990   7.7983740  11.6054890  43.6075800
   8.4425960  11.8114270  44.2849220   8.1613180  10.8443290  43.1546650
   9.0715820   9.6087240  42.3253250   9.7138050   8.9080400  42.4385420
   9.5965170  10.3885680  42.1450140  12.9171540   9.8935860  32.0492390
  12.6909120   9.1766300  32.6417030  12.5267740   9.6448300  31.2114140
  10.8453440  10.4082140  45.5289310  11.1809680  10.9948830  46.2067230
   9.9253780  10.2774850  45.7587100  12.4987790   7.8107800  33.7106550
  12.2109490   8.2720490  34.4984430  13.2939960   7.3505570  33.9790770
   6.6742020  10.4573470  48.6977370   6.3538890   9.7382710  49.2423060
   6.0000380  11.1328540  48.7713430   4.7156190  11.3033920  33.6410520
   4.7066290  12.0363610  33.0255030   3.7954550  11.0565500  33.7337480
   7.7015790  11.3662160  32.3035710   7.8027770  11.1626150  31.3737690
   6.8017530  11.1120440  32.5083490   6.8497610   3.3439220  44.2852140
   7.3482860   3.8185040  44.9503990   6.9920560   2.4202740  44.4922170
   6.3433900  13.8848480  36.9983380   6.5975400  13.8469870  36.0762750
   5.3946380  13.7581810  36.9911630  12.3486480   4.8040360  38.5741890
  11.4076620   4.8190590  38.7489580  12.6630550   4.0176320  39.0202190
   2.3268120   6.4859960  32.1345850   3.0931390   6.3741320  32.6971280
   2.4042810   5.7897930  31.4822620  14.3512060  11.9749210  40.2496150
  14.4759480  12.7980380  40.7219960  15.2177620  11.7639940  39.9020300
   1.8229590  14.0680420  39.9213280   2.5592070  13.5195880  40.1921850
   2.2070510  14.9336430  39.7819270   4.9331900  13.2410730  31.7438850
   5.7260510  13.5299560  31.2920640   4.4136250  12.8102900  31.0651330
   9.6652500   9.3606360  49.0574270   9.0590660   9.3837960  48.3170020
   9.3606610   8.6289400  49.5941520  11.0952870  13.0886650  47.6683680
  12.0474620  13.0044670  47.6183920  10.9481090  13.7528360  48.3417470
  13.9862070  12.4680860  33.1675590  13.7003580  12.0546000  32.3529770
  13.7881620  13.3968570  33.0476110   5.4509300   8.4614140  31.6081200
   5.3459940   7.8466490  32.3342580   5.2833520   7.9380030  30.8244210
   5.6023620   7.1470940  47.5870430   4.8369290   7.7155940  47.5025100
   5.7839580   6.8547150  46.6938660   8.6912030   7.5234170  32.2123190
   8.1422130   7.9703470  32.8565930   9.3131290   7.0183420  32.7360860
  12.7446970   8.8776270  48.1445450  13.4856440   9.2152030  47.6412910
  11.9819650   9.0468330  47.5915220   4.3587150   6.4825090  34.1088490
   4.7803570   6.3164960  34.9519880   4.4837990   5.6725320  33.6143630
   2.5214570   2.4621640  46.9159470   1.9911030   1.9712590  46.2882810
   3.1902640   2.8905840  46.3817400   6.8714790   5.5062700  31.3565590
   7.3920450   4.7911720  30.9906740   7.5183190   6.1448570  31.6566100
  11.4192630   6.9291100  46.6800660  11.8333650   7.0836180  47.5291080
  10.4843630   7.0546320  46.8426440  11.8914800   4.2687260  48.6839810
  12.4735570   3.5139580  48.5960290  12.0676570   4.7994700  47.9071290
   6.1807860   6.8811580  44.6496590   6.5995970   7.7244310  44.4772830
   5.2616490   7.0183620  44.4203370   8.5171760   4.6127760  46.0334430
   8.6367970   4.0168900  46.7729270   9.3765760   4.6497450  45.6135730
  10.8559660   5.1664950  44.6096940  10.3294880   5.6907570  44.0062080
  11.1991000   5.7992340  45.2406670   3.2546050   2.5558320  31.0546650
   3.0535110   1.6925680  31.4159990   3.0838100   2.4691680  30.1168250
   4.0315280  13.1864590  45.7654320   3.4936370  13.9110650  45.4463020
   4.2849240  12.7094930  44.9751660   6.8877490  14.4215800  46.0240970
   6.8136190  15.3250940  46.3313340   5.9856330  14.1027700  45.9963040
   7.4362820  13.5874310  33.6467330   8.3313610  13.9259280  33.6686090
   7.4680450  12.8653720  33.0191610   2.8866700  10.0799400  36.9876560
   2.5862240   9.9564370  37.8880470   2.7804190   9.2207990  36.5792290
  14.4157170  12.1177980  46.3533530  13.8159160  12.1770540  45.6097450
  14.5451070  11.1782960  46.4830380  15.6558620   9.8595800  31.6903240
  14.8251580   9.9272450  32.1610470  15.8330450  10.7499920  31.3870100
  15.1115080   6.6043280  34.1937440  15.8733990   7.1739930  34.2997130
  15.1269450   6.0370480  34.9645750  16.1175050   7.4593380  39.0379370
  16.4883880   6.6760700  38.6315340  16.7576980   8.1482480  38.8596670
  13.1008810   8.8429960  44.4509690  12.2868650   9.2727120  44.7135480
  13.5083010   9.4548370  43.8378740  15.1634250   6.8977650  31.3509960
  15.4383090   7.8056530  31.2229180  14.9744990   6.8340180  32.2871950
  15.0599590   4.8346640  36.3439390  14.6843190   4.0674570  35.9120680
  14.3302710   5.2169340  36.8314320  14.4499210   3.9818160  45.9778910
  14.2185300   3.7530910  45.0776860  14.7103760   4.9017710  45.9323800
  14.3350550   3.0604130  39.6446630  14.8588030   2.5666780  39.0136800
  14.9209970   3.1954490  40.3894200  14.5140270   3.1444000  43.1666180
  13.5642980   3.1107540  43.2811170  14.6953280   4.0544110  42.9315950
  13.8250520   2.3177480  35.5839040  14.3209640   2.0848350  36.3687920
  13.6266590   1.4789320  35.1676680  13.1584860  13.5948560  37.9777960
  13.7543930  13.2733130  37.3012380  13.4163010  13.1220380  38.7691230
   4.7653460  11.5826060  43.7278310   4.5244820  11.8500620  42.8408830
   5.7056100  11.7531790  43.7829170  16.0257620  13.6020440  44.5288950
  15.5315900  13.9989310  43.8116080  15.4170910  12.9769650  44.9226230
  13.7097070  14.2443860  41.8075690  13.2500040  14.9959670  41.4333710
  13.0809530  13.5250330  41.7490490   4.1392790  12.5532100  40.9823820
   4.6557810  11.9419460  40.4572080   4.7890170  13.0560880  41.4734830
   6.8788290  13.4440590  41.8092800   7.1666100  13.1894890  40.9325810
   7.3911510  12.8917950  42.3998370   6.9460650  14.3656690  49.1761000
   7.8727960  14.1300960  49.2196960   6.9311080  15.1928690  48.6947030
  15.1805710  13.9082260  36.1735250  15.3557900  13.2220000  35.5296170
  14.4827280  14.4329310  35.7811920   3.0233360  14.2977100  33.7270560
   3.7552180  14.0136380  33.1794450   3.2827030  14.0590380  34.6169940
   2.1848150  10.4141830  33.7316890   1.5557030  10.8826930  34.2802720
   2.2995980   9.5691050  34.1663080  13.5138210  13.5926550  49.0002040
  14.3063530  13.0975780  48.7928000  13.8071360  14.2716690  49.6077650
   9.6397870   4.4647490  19.8818090   9.5591920   3.5502100  19.6109800
   9.2262290   4.9614560  19.1757800   7.7715910   6.2426510  21.7627360
   6.9958010   5.7626950  22.0525930   8.4228840   5.5632160  21.5883520
  11.7923340  10.6486700  20.5426490  11.3304870   9.8773940  20.8713660
  12.6048890  10.6752770  21.0478940   1.7683000  10.5886410  22.8361140
   2.0711040   9.6984150  22.6571360   2.5126590  11.1456630  22.6083390
   8.0186650  12.9344710  20.1630480   7.3998090  13.3902210  19.5924920
   8.8738430  13.0896170  19.7620180   7.2124900   8.9183700  21.7697520
   7.1433180   7.9773640  21.6086650   7.9744760   9.0085110  22.3420090
   4.2142810   3.0666080  21.7909070   4.7221030   3.5647050  22.4314090
   4.7456050   2.2901280  21.6148430   8.8850000   7.8183950  17.5562390
   8.2667270   8.2833400  16.9925110   9.3973250   8.5111430  17.9731900
   3.7481760   7.3459820  24.2345990   3.4151140   7.9728740  24.8767060
   3.9248440   7.8721700  23.4547660   2.9600860   9.3140620  26.0495170
   3.5774860   9.9891700  25.7679620   2.0993980   9.7228600  25.9582670
  13.8778450  10.7780030  23.9649810  13.1941970  11.4479140  23.9566480
  14.4172740  10.9760680  23.1994670  11.4137190  12.6224160  22.6794990
  11.4264350  12.2186450  21.8117250  10.8612410  13.3971450  22.5756420
  12.7082610   9.3440380  17.7685160  12.5978940   8.4014710  17.8934580
  12.7050860   9.7056020  18.6547920  10.8122630   7.5254000  24.0077600
  11.2291420   7.3114110  23.1731060  11.5362450   7.7826790  24.5786220
   8.2502890   4.9705700  17.1247650   7.3232170   4.9043080  17.3536120
   8.4027710   5.9085830  17.0102890  14.7584730   5.9241220  24.0993840
  13.9303360   5.9934310  23.6243970  15.3535210   6.5095530  23.6309670
  12.2800180   6.5326000  17.6282900  11.6612600   6.1945550  16.9809200
  12.2624630   5.8885760  18.3362090  11.7226740   2.7110540  25.0448710
  11.3097920   3.5364250  25.2988700  10.9902690   2.1255580  24.8525070
   3.8559530   5.4970440  19.9067380   3.4516530   4.7847690  19.4113280
   3.9422650   5.1523680  20.7955420   4.3241230   9.1838000  22.0706590
   4.0269520   8.5783470  21.3914370   5.2741050   9.2215310  21.9595950
   2.5688150   2.2713650  23.6866420   3.1202740   2.3808990  22.9119670
   3.0831660   2.6451250  24.4021650  12.4126840  12.7569870  25.7329690
  11.9357400  13.5642060  25.5402300  11.7288630  12.1048200  25.8855900
   3.4159660   8.9219690  28.7214390   2.5188190   9.1459660  28.9687790
   3.4412530   9.0454630  27.7725790  10.4564880   5.7712810  14.6355650
  10.8958160   4.9335240  14.4893470  11.1693300   6.4042210  14.7219790
   8.5660260  10.7108880  18.6036890   9.0056170  11.4533210  18.1892280
   8.5047150  10.9535450  19.5275850   4.0411230  11.7354710  29.5056910
   4.0126660  12.1397660  28.6385340   3.8776200  10.8065070  29.3428510
  15.9926050  12.5181810  30.8021080  16.4685770  12.9964700  31.4810160
  16.6133210  12.4499300  30.0766580  15.3959300   9.7094660  27.9621090
  15.5222360   9.4706540  27.0438270  15.4380680   8.8779200  28.4343170
   9.2576040  13.4122660  26.5315900   9.7720710  13.3230670  27.3338330
   8.4145120  13.7582360  26.8243810  11.2330440  13.6978000  15.9599900
  11.0731580  13.4080940  16.8581730  11.0677150  12.9218130  15.4245130
   3.7118820  13.4776530  17.7371520   3.5361300  12.5612070  17.5239320
   2.8574560  13.8363820  17.9769320  10.9356570  11.2065560  14.5197900
  10.2421730  11.2042850  13.8600180  11.6779430  10.7824880  14.0892070
  10.5006500  12.8328270  18.5946390  10.9563450  12.0517650  18.9085010
  10.8399020  13.5435090  19.1387570  12.3102140   1.8227960  27.5229680
  11.4595730   1.5233710  27.8438750  12.1503930   2.0669970  26.6113500
   9.4051850   3.3229710  29.6228470   9.7305260   2.4893460  29.2830700
  10.1932180   3.8458230  29.7706800   2.8142040   2.8584060  18.5178950
   2.5882960   2.6421230  19.4225570   2.0334570   3.2912520  18.1724920
  10.0439800   2.8647430  17.1169600   9.4448690   3.5883230  16.9333220
  10.5919410   2.8024210  16.3346050   5.2541250   3.7569640  29.1839220
   5.1584850   2.8164370  29.0339620   6.0973230   3.9784710  28.7887290
   9.2359810   4.0916720  23.2423660   8.5040930   4.6003530  23.5913760
   8.8384150   3.2746700  22.9412440   5.7357350   1.7683000  14.6382910
   5.8570170   1.7269480  15.5868730   5.3505860   2.6307150  14.4829640
   4.7478850   4.0784140  14.0366210   4.1795750   3.6302390  13.4102120
   5.4567850   4.4376920  13.5031360   5.9745170   4.8272700  23.3941560
   6.3415300   4.3531270  24.1402900   5.7850230   5.7014270  23.7349900
   3.7644540   3.8681340  25.7125770   3.4601610   4.7473320  25.9376130
   4.7191000   3.9281130  25.7483210   2.2926330   8.0742330  16.3092620
   1.5188590   7.5339950  16.1491340   3.0220960   7.5548940  15.9710380
  13.0514310   7.0707690  22.1019010  13.7713430   7.5662980  21.7115120
  12.8496130   6.3925580  21.4572880   8.4333110   7.1416750  27.9888010
   8.3670420   6.2212420  27.7345600   7.8038250   7.2392190  28.7032650
  11.2272640   2.8365300  14.5410560  12.1152260   3.1482530  14.3661900
  11.1977730   1.9637550  14.1491140   2.3363730   7.7422710  19.9471430
   2.8542400   6.9390970  19.8928320   1.8847750   7.6801850  20.7888260
   7.2233230   9.0088990  15.2198730   7.5648930   9.7531220  14.7242050
   6.3945940   9.3220110  15.5823560   3.0221390   5.1668320  29.7436680
   2.7221530   5.3125500  28.8464500   3.7932630   4.6073610  29.6510070
   8.3649840   9.9637320  27.7391810   8.3794380   9.0318280  27.5210720
   7.6574940  10.0497080  28.3781580  13.4986910   4.1477140  14.0090420
  13.4150630   4.5791360  13.1586860  14.2181100   4.6075490  14.4417240
  14.5761050   6.6044660  27.0860390  13.8509240   7.1973440  26.8889780
  15.1036510   6.5968200  26.2873760  14.5274160  11.0019400  16.7372550
  13.8850320  10.3475020  17.0116270  14.1404820  11.4074490  15.9613220
  10.1060640   8.3304830  20.5844240  10.4584460   7.7332960  19.9245610
   9.2222970   8.0049060  20.7552490   6.1923920   9.0902520  17.9914650
   6.8795050   9.6371730  18.3722240   5.4056340   9.6343250  18.0264260
   5.4951130   6.0948550  17.6040010   5.9513910   6.9053800  17.8300200
   5.1439340   5.7771690  18.4358500   7.7983740  11.6054890  24.8332310
   8.4425960  11.8114270  25.5105730   8.1613180  10.8443290  24.3803160
   9.0715820   9.6087240  23.5509760   9.7138050   8.9080400  23.6641930
   9.5965170  10.3885680  23.3706650  12.9171540   9.8935860  13.2748900
  12.6909120   9.1766300  13.8673540  12.5267740   9.6448300  12.4370650
  10.8453440  10.4082140  26.7545820  11.1809680  10.9948830  27.4323740
   9.9253780  10.2774850  26.9843610  12.4987790   7.8107800  14.9363060
  12.2109490   8.2720490  15.7240940  13.2939960   7.3505570  15.2047280
   6.6742020  10.4573470  29.9233880   6.3538890   9.7382710  30.4679570
   6.0000380  11.1328540  29.9969940   4.7156190  11.3033920  14.8667030
   4.7066290  12.0363610  14.2511540   3.7954550  11.0565500  14.9593990
   7.7015790  11.3662160  13.5292220   7.8027770  11.1626150  12.5994200
   6.8017530  11.1120440  13.7340000   6.8497610   3.3439220  25.5108650
   7.3482860   3.8185040  26.1760500   6.9920560   2.4202740  25.7178680
   6.3433900  13.8848480  18.2239890   6.5975400  13.8469870  17.3019260
   5.3946380  13.7581810  18.2168140  12.3486480   4.8040360  19.7998400
  11.4076620   4.8190590  19.9746090  12.6630550   4.0176320  20.2458700
   2.3268120   6.4859960  13.3602360   3.0931390   6.3741320  13.9227790
   2.4042810   5.7897930  12.7079130  14.3512060  11.9749210  21.4752660
  14.4759480  12.7980380  21.9476470  15.2177620  11.7639940  21.1276810
   1.8229590  14.0680420  21.1469790   2.5592070  13.5195880  21.4178360
   2.2070510  14.9336430  21.0075780   4.9331900  13.2410730  12.9695360
   5.7260510  13.5299560  12.5177150   4.4136250  12.8102900  12.2907840
   9.6652500   9.3606360  30.2830780   9.0590660   9.3837960  29.5426530
   9.3606610   8.6289400  30.8198030  11.0952870  13.0886650  28.8940190
  12.0474620  13.0044670  28.8440430  10.9481090  13.7528360  29.5673980
  13.9862070  12.4680860  14.3932100  13.7003580  12.0546000  13.5786280
  13.7881620  13.3968570  14.2732620   5.4509300   8.4614140  12.8337710
   5.3459940   7.8466490  13.5599090   5.2833520   7.9380030  12.0500720
   5.6023620   7.1470940  28.8126940   4.8369290   7.7155940  28.7281610
   5.7839580   6.8547150  27.9195170   8.6912030   7.5234170  13.4379700
   8.1422130   7.9703470  14.0822440   9.3131290   7.0183420  13.9617370
  12.7446970   8.8776270  29.3701960  13.4856440   9.2152030  28.8669420
  11.9819650   9.0468330  28.8171730   4.3587150   6.4825090  15.3345000
   4.7803570   6.3164960  16.1776390   4.4837990   5.6725320  14.8400140
   2.5214570   2.4621640  28.1415980   1.9911030   1.9712590  27.5139320
   3.1902640   2.8905840  27.6073910   6.8714790   5.5062700  12.5822100
   7.3920450   4.7911720  12.2163250   7.5183190   6.1448570  12.8822610
  11.4192630   6.9291100  27.9057170  11.8333650   7.0836180  28.7547590
  10.4843630   7.0546320  28.0682950  11.8914800   4.2687260  29.9096320
  12.4735570   3.5139580  29.8216800  12.0676570   4.7994700  29.1327800
   6.1807860   6.8811580  25.8753100   6.5995970   7.7244310  25.7029340
   5.2616490   7.0183620  25.6459880   8.5171760   4.6127760  27.2590940
   8.6367970   4.0168900  27.9985780   9.3765760   4.6497450  26.8392240
  10.8559660   5.1664950  25.8353450  10.3294880   5.6907570  25.2318590
  11.1991000   5.7992340  26.4663180   3.2546050   2.5558320  12.2803160
   3.0535110   1.6925680  12.6416500   3.0838100   2.4691680  11.3424760
   4.0315280  13.1864590  26.9910830   3.4936370  13.9110650  26.6719530
   4.2849240  12.7094930  26.2008170   6.8877490  14.4215800  27.2497480
   6.8136190  15.3250940  27.5569850   5.9856330  14.1027700  27.2219550
   7.4362820  13.5874310  14.8723840   8.3313610  13.9259280  14.8942600
   7.4680450  12.8653720  14.2448120   2.8866700  10.0799400  18.2133070
   2.5862240   9.9564370  19.1136980   2.7804190   9.2207990  17.8048800
  14.4157170  12.1177980  27.5790040  13.8159160  12.1770540  26.8353960
  14.5451070  11.1782960  27.7086890  15.6558620   9.8595800  12.9159750
  14.8251580   9.9272450  13.3866980  15.8330450  10.7499920  12.6126610
  15.1115080   6.6043280  15.4193950  15.8733990   7.1739930  15.5253640
  15.1269450   6.0370480  16.1902260  16.1175050   7.4593380  20.2635880
  16.4883880   6.6760700  19.8571850  16.7576980   8.1482480  20.0853180
  13.1008810   8.8429960  25.6766200  12.2868650   9.2727120  25.9391990
  13.5083010   9.4548370  25.0635250  15.1634250   6.8977650  12.5766470
  15.4383090   7.8056530  12.4485690  14.9744990   6.8340180  13.5128460
  15.0599590   4.8346640  17.5695900  14.6843190   4.0674570  17.1377190
  14.3302710   5.2169340  18.0570830  14.4499210   3.9818160  27.2035420
  14.2185300   3.7530910  26.3033370  14.7103760   4.9017710  27.1580310
  14.3350550   3.0604130  20.8703140  14.8588030   2.5666780  20.2393310
  14.9209970   3.1954490  21.6150710  14.5140270   3.1444000  24.3922690
  13.5642980   3.1107540  24.5067680  14.6953280   4.0544110  24.1572460
  13.8250520   2.3177480  16.8095550  14.3209640   2.0848350  17.5944430
  13.6266590   1.4789320  16.3933190  13.1584860  13.5948560  19.2034470
  13.7543930  13.2733130  18.5268890  13.4163010  13.1220380  19.9947740
   4.7653460  11.5826060  24.9534820   4.5244820  11.8500620  24.0665340
   5.7056100  11.7531790  25.0085680  16.0257620  13.6020440  25.7545460
  15.5315900  13.9989310  25.0372590  15.4170910  12.9769650  26.1482740
  13.7097070  14.2443860  23.0332200  13.2500040  14.9959670  22.6590220
  13.0809530  13.5250330  22.9747000   4.1392790  12.5532100  22.2080330
   4.6557810  11.9419460  21.6828590   4.7890170  13.0560880  22.6991340
   6.8788290  13.4440590  23.0349310   7.1666100  13.1894890  22.1582320
   7.3911510  12.8917950  23.6254880   6.9460650  14.3656690  30.4017510
   7.8727960  14.1300960  30.4453470   6.9311080  15.1928690  29.9203540
  15.1805710  13.9082260  17.3991760  15.3557900  13.2220000  16.7552680
  14.4827280  14.4329310  17.0068430   3.0233360  14.2977100  14.9527070
   3.7552180  14.0136380  14.4050960   3.2827030  14.0590380  15.8426450
   2.1848150  10.4141830  14.9573400   1.5557030  10.8826930  15.5059230
   2.2995980   9.5691050  15.3919590  13.5138210  13.5926550  30.2258550
  14.3063530  13.0975780  30.0184510  13.8071360  14.2716690  30.8334160
   7.7715910   6.2426510   2.9883870   6.9958010   5.7626950   3.2782440
   8.4228840   5.5632160   2.8140030  11.7923340  10.6486700   1.7683000
  11.3304870   9.8773940   2.0970170  12.6048890  10.6752770   2.2735450
   1.7683000  10.5886410   4.0617650   2.0711040   9.6984150   3.8827870
   2.5126590  11.1456630   3.8339900   7.2124900   8.9183700   2.9954030
   7.1433180   7.9773640   2.8343160   7.9744760   9.0085110   3.5676600
   4.2142810   3.0666080   3.0165580   4.7221030   3.5647050   3.6570600
   4.7456050   2.2901280   2.8404940   3.7481760   7.3459820   5.4602500
   3.4151140   7.9728740   6.1023570   3.9248440   7.8721700   4.6804170
   2.9600860   9.3140620   7.2751680   3.5774860   9.9891700   6.9936130
   2.0993980   9.7228600   7.1839180  13.8778450  10.7780030   5.1906320
  13.1941970  11.4479140   5.1822990  14.4172740  10.9760680   4.4251180
  11.4137190  12.6224160   3.9051500  11.4264350  12.2186450   3.0373760
  10.8612410  13.3971450   3.8012930  10.8122630   7.5254000   5.2334110
  11.2291420   7.3114110   4.3987570  11.5362450   7.7826790   5.8042730
  14.7584730   5.9241220   5.3250350  13.9303360   5.9934310   4.8500480
  15.3535210   6.5095530   4.8566180  11.7226740   2.7110540   6.2705220
  11.3097920   3.5364250   6.5245210  10.9902690   2.1255580   6.0781580
   4.3241230   9.1838000   3.2963100   4.0269520   8.5783470   2.6170880
   5.2741050   9.2215310   3.1852460   2.5688150   2.2713650   4.9122930
   3.1202740   2.3808990   4.1376180   3.0831660   2.6451250   5.6278160
  12.4126840  12.7569870   6.9586200  11.9357400  13.5642060   6.7658810
  11.7288630  12.1048200   7.1112410   3.4159660   8.9219690   9.9470900
   2.5188190   9.1459660  10.1944300   3.4412530   9.0454630   8.9982300
   4.0411230  11.7354710  10.7313420   4.0126660  12.1397660   9.8641850
   3.8776200  10.8065070  10.5685020  15.9926050  12.5181810  12.0277590
  16.4685770  12.9964700  12.7066670  16.6133210  12.4499300  11.3023090
  15.3959300   9.7094660   9.1877600  15.5222360   9.4706540   8.2694780
  15.4380680   8.8779200   9.6599680   9.2576040  13.4122660   7.7572410
   9.7720710  13.3230670   8.5594840   8.4145120  13.7582360   8.0500320
  12.3102140   1.8227960   8.7486190  11.4595730   1.5233710   9.0695260
  12.1503930   2.0669970   7.8370010   9.4051850   3.3229710  10.8484980
   9.7305260   2.4893460  10.5087210  10.1932180   3.8458230  10.9963310
   5.2541250   3.7569640  10.4095730   5.1584850   2.8164370  10.2596130
   6.0973230   3.9784710  10.0143800   9.2359810   4.0916720   4.4680170
   8.5040930   4.6003530   4.8170270   8.8384150   3.2746700   4.1668950
   5.9745170   4.8272700   4.6198070   6.3415300   4.3531270   5.3659410
   5.7850230   5.7014270   4.9606410   3.7644540   3.8681340   6.9382280
   3.4601610   4.7473320   7.1632640   4.7191000   3.9281130   6.9739720
  13.0514310   7.0707690   3.3275520  13.7713430   7.5662980   2.9371630
  12.8496130   6.3925580   2.6829390   8.4333110   7.1416750   9.2144520
   8.3670420   6.2212420   8.9602110   7.8038250   7.2392190   9.9289160
   3.0221390   5.1668320  10.9693190   2.7221530   5.3125500  10.0721010
   3.7932630   4.6073610  10.8766580   8.3649840   9.9637320   8.9648320
   8.3794380   9.0318280   8.7467230   7.6574940  10.0497080   9.6038090
  14.5761050   6.6044660   8.3116900  13.8509240   7.1973440   8.1146290
  15.1036510   6.5968200   7.5130270   7.7983740  11.6054890   6.0588820
   8.4425960  11.8114270   6.7362240   8.1613180  10.8443290   5.6059670
   9.0715820   9.6087240   4.7766270   9.7138050   8.9080400   4.8898440
   9.5965170  10.3885680   4.5963160  10.8453440  10.4082140   7.9802330
  11.1809680  10.9948830   8.6580250   9.9253780  10.2774850   8.2100120
   6.6742020  10.4573470  11.1490390   6.3538890   9.7382710  11.6936080
   6.0000380  11.1328540  11.2226450   6.8497610   3.3439220   6.7365160
   7.3482860   3.8185040   7.4017010   6.9920560   2.4202740   6.9435190
  14.3512060  11.9749210   2.7009170  14.4759480  12.7980380   3.1732980
  15.2177620  11.7639940   2.3533320   1.8229590  14.0680420   2.3726300
   2.5592070  13.5195880   2.6434870   2.2070510  14.9336430   2.2332290
   9.6652500   9.3606360  11.5087290   9.0590660   9.3837960  10.7683040
   9.3606610   8.6289400  12.0454540  11.0952870  13.0886650  10.1196700
  12.0474620  13.0044670  10.0696940  10.9481090  13.7528360  10.7930490
   5.6023620   7.1470940  10.0383450   4.8369290   7.7155940   9.9538120
   5.7839580   6.8547150   9.1451680  12.7446970   8.8776270  10.5958470
  13.4856440   9.2152030  10.0925930  11.9819650   9.0468330  10.0428240
   2.5214570   2.4621640   9.3672490   1.9911030   1.9712590   8.7395830
   3.1902640   2.8905840   8.8330420  11.4192630   6.9291100   9.1313680
  11.8333650   7.0836180   9.9804100  10.4843630   7.0546320   9.2939460
  11.8914800   4.2687260  11.1352830  12.4735570   3.5139580  11.0473310
  12.0676570   4.7994700  10.3584310   6.1807860   6.8811580   7.1009610
   6.5995970   7.7244310   6.9285850   5.2616490   7.0183620   6.8716390
   8.5171760   4.6127760   8.4847450   8.6367970   4.0168900   9.2242290
   9.3765760   4.6497450   8.0648750  10.8559660   5.1664950   7.0609960
  10.3294880   5.6907570   6.4575100  11.1991000   5.7992340   7.6919690
   4.0315280  13.1864590   8.2167340   3.4936370  13.9110650   7.8976040
   4.2849240  12.7094930   7.4264680   6.8877490  14.4215800   8.4753990
   6.8136190  15.3250940   8.7826360   5.9856330  14.1027700   8.4476060
  14.4157170  12.1177980   8.8046550  13.8159160  12.1770540   8.0610470
  14.5451070  11.1782960   8.9343400  13.1008810   8.8429960   6.9022710
  12.2868650   9.2727120   7.1648500  13.5083010   9.4548370   6.2891760
  14.4499210   3.9818160   8.4291930  14.2185300   3.7530910   7.5289880
  14.7103760   4.9017710   8.3836820  14.5140270   3.1444000   5.6179200
  13.5642980   3.1107540   5.7324190  14.6953280   4.0544110   5.3828970
   4.7653460  11.5826060   6.1791330   4.5244820  11.8500620   5.2921850
   5.7056100  11.7531790   6.2342190  16.0257620  13.6020440   6.9801970
  15.5315900  13.9989310   6.2629100  15.4170910  12.9769650   7.3739250
  13.7097070  14.2443860   4.2588710  13.2500040  14.9959670   3.8846730
  13.0809530  13.5250330   4.2003510   4.1392790  12.5532100   3.4336840
   4.6557810  11.9419460   2.9085100   4.7890170  13.0560880   3.9247850
   6.8788290  13.4440590   4.2605820   7.1666100  13.1894890   3.3838830
   7.3911510  12.8917950   4.8511390   6.9460650  14.3656690  11.6274020
   7.8727960  14.1300960  11.6709980   6.9311080  15.1928690  11.1460050
  13.5138210  13.5926550  11.4515060  14.3063530  13.0975780  11.2441020
  13.8071360  14.2716690  12.0590670
  89.1759100  85.7840660  80.3998680  90.0000000  90.0000000  90.0000000
