integrator      = md
dt              = 0.002
nsteps          = 50000000
nstxout-compressed = 5000
nstlog          = 50000
nstenergy       = 50000
continuation    = yes
constraint_algorithm = lincs
constraints     = h-bonds
lincs_iter      = 1
lincs_order     = 4
cutoff-scheme   = Verlet
nstlist         = 20
rcoulomb        = 1.0
rvdw            = 1.0
coulombtype     = PME
pme_order       = 4
fourierspacing  = 0.16
tcoupl          = V-rescale
tc-grps         = Protein_PYR Water_and_ions
tau_t           = 0.1   0.1
ref_t           = 310   310
pcoupl          = C-rescale
pcoupltype      = isotropic
tau_p           = 2.0
ref_p           = 1.0
compressibility = 4.5e-5
pbc             = xyz
DispCorr        = EnerPres
gen_vel         = no
